ITEM: TIMESTEP
0
ITEM: NUMBER OF ATOMS
23652
ITEM: BOX BOUNDS ff pp pp
0.0000000000000000e+00 2.0000000000000000e+02
0.0000000000000000e+00 5.0000000000000000e+01
0.0000000000000000e+00 5.0000000000000000e+01
ITEM: ATOMS id type xs ys zs
4 1 0.00680463 0.0272185 0.0272185
488 1 0.0272185 0.054437 0.054437
491 1 0.0340231 0.0272185 0.0272185
1136 1 0.054437 0.054437 0.054437
1139 1 0.0612417 0.0272185 0.0272185
1784 1 0.0816555 0.054437 0.054437
1787 1 0.0884602 0.0272185 0.0272185
2432 1 0.108874 0.054437 0.054437
2435 1 0.115679 0.0272185 0.0272185
3080 1 0.136093 0.054437 0.054437
3083 1 0.142897 0.0272185 0.0272185
3728 1 0.163311 0.054437 0.054437
3731 1 0.170116 0.0272185 0.0272185
4376 1 0.19053 0.054437 0.054437
4379 1 0.197334 0.0272185 0.0272185
5024 1 0.217748 0.054437 0.054437
5027 1 0.224553 0.0272185 0.0272185
5672 1 0.244967 0.054437 0.054437
5675 1 0.251771 0.0272185 0.0272185
6320 1 0.272185 0.054437 0.054437
6323 1 0.27899 0.0272185 0.0272185
6968 1 0.299404 0.054437 0.054437
6971 1 0.306208 0.0272185 0.0272185
7616 1 0.326622 0.054437 0.054437
7619 1 0.333427 0.0272185 0.0272185
8264 1 0.353841 0.054437 0.054437
8267 1 0.360645 0.0272185 0.0272185
8912 1 0.381059 0.054437 0.054437
8915 1 0.387864 0.0272185 0.0272185
9560 1 0.408278 0.054437 0.054437
9563 1 0.415082 0.0272185 0.0272185
10208 1 0.435496 0.054437 0.054437
10211 1 0.442301 0.0272185 0.0272185
10856 1 0.462715 0.054437 0.054437
10859 1 0.469519 0.0272185 0.0272185
11504 1 0.489933 0.054437 0.054437
11507 1 0.496738 0.0272185 0.0272185
12152 1 0.517152 0.054437 0.054437
12155 1 0.523956 0.0272185 0.0272185
12800 1 0.54437 0.054437 0.054437
12803 1 0.551175 0.0272185 0.0272185
13448 1 0.571589 0.054437 0.054437
13451 1 0.578393 0.0272185 0.0272185
14096 1 0.598807 0.054437 0.054437
14099 1 0.605612 0.0272185 0.0272185
14744 1 0.626026 0.054437 0.054437
14747 1 0.63283 0.0272185 0.0272185
15392 1 0.653244 0.054437 0.054437
15395 1 0.660049 0.0272185 0.0272185
16040 1 0.680463 0.054437 0.054437
16043 1 0.687267 0.0272185 0.0272185
16688 1 0.707681 0.054437 0.054437
16691 1 0.714486 0.0272185 0.0272185
17336 1 0.7349 0.054437 0.054437
17339 1 0.741704 0.0272185 0.0272185
17984 1 0.762118 0.054437 0.054437
17987 1 0.768923 0.0272185 0.0272185
18632 1 0.789337 0.054437 0.054437
18635 1 0.796141 0.0272185 0.0272185
19280 1 0.816555 0.054437 0.054437
19283 1 0.82336 0.0272185 0.0272185
19928 1 0.843774 0.054437 0.054437
19931 1 0.850578 0.0272185 0.0272185
20576 1 0.870992 0.054437 0.054437
20579 1 0.877797 0.0272185 0.0272185
21224 1 0.898211 0.054437 0.054437
21227 1 0.905016 0.0272185 0.0272185
21872 1 0.925429 0.054437 0.054437
21875 1 0.932234 0.0272185 0.0272185
22520 1 0.952648 0.054437 0.054437
22523 1 0.959453 0.0272185 0.0272185
23167 1 0.979866 0.054437 0.054437
23169 1 0.986671 0.0272185 0.0272185
1 1 0.0204139 0.0816555 0.0272185
50 1 0.0136093 0.108874 0.054437
487 1 0.0476324 0.0816555 0.0272185
546 1 0.0408278 0.108874 0.054437
1135 1 0.0748509 0.0816555 0.0272185
1194 1 0.0680463 0.108874 0.054437
1783 1 0.102069 0.0816555 0.0272185
1842 1 0.0952648 0.108874 0.054437
2431 1 0.129288 0.0816555 0.0272185
2490 1 0.122483 0.108874 0.054437
3079 1 0.156506 0.0816555 0.0272185
3138 1 0.149702 0.108874 0.054437
3727 1 0.183725 0.0816555 0.0272185
3786 1 0.17692 0.108874 0.054437
4375 1 0.210943 0.0816555 0.0272185
4434 1 0.204139 0.108874 0.054437
5023 1 0.238162 0.0816555 0.0272185
5082 1 0.231357 0.108874 0.054437
5671 1 0.26538 0.0816555 0.0272185
5730 1 0.258576 0.108874 0.054437
6319 1 0.292599 0.0816555 0.0272185
6378 1 0.285794 0.108874 0.054437
6967 1 0.319818 0.0816555 0.0272185
7026 1 0.313013 0.108874 0.054437
7674 1 0.340231 0.108874 0.054437
7615 1 0.347036 0.0816555 0.0272185
8322 1 0.36745 0.108874 0.054437
8263 1 0.374255 0.0816555 0.0272185
8970 1 0.394668 0.108874 0.054437
8911 1 0.401473 0.0816555 0.0272185
9618 1 0.421887 0.108874 0.054437
9559 1 0.428692 0.0816555 0.0272185
10266 1 0.449105 0.108874 0.054437
10207 1 0.45591 0.0816555 0.0272185
10914 1 0.476324 0.108874 0.054437
10855 1 0.483129 0.0816555 0.0272185
11562 1 0.503542 0.108874 0.054437
11503 1 0.510347 0.0816555 0.0272185
12210 1 0.530761 0.108874 0.054437
12151 1 0.537566 0.0816555 0.0272185
12858 1 0.557979 0.108874 0.054437
12799 1 0.564784 0.0816555 0.0272185
13506 1 0.585198 0.108874 0.054437
13447 1 0.592003 0.0816555 0.0272185
14154 1 0.612417 0.108874 0.054437
14095 1 0.619221 0.0816555 0.0272185
14802 1 0.639635 0.108874 0.054437
14743 1 0.64644 0.0816555 0.0272185
15391 1 0.673658 0.0816555 0.0272185
15450 1 0.666854 0.108874 0.054437
16039 1 0.700877 0.0816555 0.0272185
16098 1 0.694072 0.108874 0.054437
16687 1 0.728095 0.0816555 0.0272185
16746 1 0.721291 0.108874 0.054437
17335 1 0.755314 0.0816555 0.0272185
17394 1 0.748509 0.108874 0.054437
17983 1 0.782532 0.0816555 0.0272185
18042 1 0.775728 0.108874 0.054437
18631 1 0.809751 0.0816555 0.0272185
18690 1 0.802946 0.108874 0.054437
19279 1 0.836969 0.0816555 0.0272185
19338 1 0.830165 0.108874 0.054437
19927 1 0.864188 0.0816555 0.0272185
19986 1 0.857383 0.108874 0.054437
20575 1 0.891406 0.0816555 0.0272185
20634 1 0.884602 0.108874 0.054437
21223 1 0.918625 0.0816555 0.0272185
21282 1 0.91182 0.108874 0.054437
21871 1 0.945843 0.0816555 0.0272185
21930 1 0.939039 0.108874 0.054437
22519 1 0.973062 0.0816555 0.0272185
22578 1 0.966257 0.108874 0.054437
23206 1 0.993476 0.108874 0.054437
49 1 0.00680463 0.136093 0.0272185
542 1 0.0272185 0.163311 0.054437
545 1 0.0340231 0.136093 0.0272185
1190 1 0.054437 0.163311 0.054437
1193 1 0.0612417 0.136093 0.0272185
1838 1 0.0816555 0.163311 0.054437
1841 1 0.0884602 0.136093 0.0272185
2486 1 0.108874 0.163311 0.054437
2489 1 0.115679 0.136093 0.0272185
3134 1 0.136093 0.163311 0.054437
3137 1 0.142897 0.136093 0.0272185
3782 1 0.163311 0.163311 0.054437
3785 1 0.170116 0.136093 0.0272185
4430 1 0.19053 0.163311 0.054437
4433 1 0.197334 0.136093 0.0272185
5078 1 0.217748 0.163311 0.054437
5081 1 0.224553 0.136093 0.0272185
5726 1 0.244967 0.163311 0.054437
5729 1 0.251771 0.136093 0.0272185
6374 1 0.272185 0.163311 0.054437
6377 1 0.27899 0.136093 0.0272185
7022 1 0.299404 0.163311 0.054437
7025 1 0.306208 0.136093 0.0272185
7670 1 0.326622 0.163311 0.054437
7673 1 0.333427 0.136093 0.0272185
8318 1 0.353841 0.163311 0.054437
8321 1 0.360645 0.136093 0.0272185
8966 1 0.381059 0.163311 0.054437
8969 1 0.387864 0.136093 0.0272185
9614 1 0.408278 0.163311 0.054437
9617 1 0.415082 0.136093 0.0272185
10262 1 0.435496 0.163311 0.054437
10265 1 0.442301 0.136093 0.0272185
10910 1 0.462715 0.163311 0.054437
10913 1 0.469519 0.136093 0.0272185
11558 1 0.489933 0.163311 0.054437
11561 1 0.496738 0.136093 0.0272185
12206 1 0.517152 0.163311 0.054437
12209 1 0.523956 0.136093 0.0272185
12854 1 0.54437 0.163311 0.054437
12857 1 0.551175 0.136093 0.0272185
13502 1 0.571589 0.163311 0.054437
13505 1 0.578393 0.136093 0.0272185
14150 1 0.598807 0.163311 0.054437
14153 1 0.605612 0.136093 0.0272185
14798 1 0.626026 0.163311 0.054437
14801 1 0.63283 0.136093 0.0272185
15446 1 0.653244 0.163311 0.054437
15449 1 0.660049 0.136093 0.0272185
16094 1 0.680463 0.163311 0.054437
16097 1 0.687267 0.136093 0.0272185
16742 1 0.707681 0.163311 0.054437
16745 1 0.714486 0.136093 0.0272185
17390 1 0.7349 0.163311 0.054437
17393 1 0.741704 0.136093 0.0272185
18038 1 0.762118 0.163311 0.054437
18041 1 0.768923 0.136093 0.0272185
18686 1 0.789337 0.163311 0.054437
18689 1 0.796141 0.136093 0.0272185
19334 1 0.816555 0.163311 0.054437
19337 1 0.82336 0.136093 0.0272185
19982 1 0.843774 0.163311 0.054437
19985 1 0.850578 0.136093 0.0272185
20630 1 0.870992 0.163311 0.054437
20633 1 0.877797 0.136093 0.0272185
21278 1 0.898211 0.163311 0.054437
21281 1 0.905016 0.136093 0.0272185
21926 1 0.925429 0.163311 0.054437
21929 1 0.932234 0.136093 0.0272185
22574 1 0.952648 0.163311 0.054437
22577 1 0.959453 0.136093 0.0272185
23203 1 0.979866 0.163311 0.054437
23205 1 0.986671 0.136093 0.0272185
46 1 0.0204139 0.19053 0.0272185
104 1 0.0136093 0.217748 0.054437
541 1 0.0476324 0.19053 0.0272185
618 1 0.0408278 0.217748 0.054437
1189 1 0.0748509 0.19053 0.0272185
1266 1 0.0680463 0.217748 0.054437
1837 1 0.102069 0.19053 0.0272185
1914 1 0.0952648 0.217748 0.054437
2485 1 0.129288 0.19053 0.0272185
2562 1 0.122483 0.217748 0.054437
3133 1 0.156506 0.19053 0.0272185
3210 1 0.149702 0.217748 0.054437
3781 1 0.183725 0.19053 0.0272185
3858 1 0.17692 0.217748 0.054437
4429 1 0.210943 0.19053 0.0272185
4506 1 0.204139 0.217748 0.054437
5077 1 0.238162 0.19053 0.0272185
5154 1 0.231357 0.217748 0.054437
5725 1 0.26538 0.19053 0.0272185
5802 1 0.258576 0.217748 0.054437
6373 1 0.292599 0.19053 0.0272185
6450 1 0.285794 0.217748 0.054437
7021 1 0.319818 0.19053 0.0272185
7098 1 0.313013 0.217748 0.054437
7746 1 0.340231 0.217748 0.054437
7669 1 0.347036 0.19053 0.0272185
8394 1 0.36745 0.217748 0.054437
8317 1 0.374255 0.19053 0.0272185
9042 1 0.394668 0.217748 0.054437
8965 1 0.401473 0.19053 0.0272185
9690 1 0.421887 0.217748 0.054437
9613 1 0.428692 0.19053 0.0272185
10338 1 0.449105 0.217748 0.054437
10261 1 0.45591 0.19053 0.0272185
10986 1 0.476324 0.217748 0.054437
10909 1 0.483129 0.19053 0.0272185
11634 1 0.503542 0.217748 0.054437
11557 1 0.510347 0.19053 0.0272185
12282 1 0.530761 0.217748 0.054437
12205 1 0.537566 0.19053 0.0272185
12930 1 0.557979 0.217748 0.054437
12853 1 0.564784 0.19053 0.0272185
13578 1 0.585198 0.217748 0.054437
13501 1 0.592003 0.19053 0.0272185
14226 1 0.612417 0.217748 0.054437
14149 1 0.619221 0.19053 0.0272185
14874 1 0.639635 0.217748 0.054437
14797 1 0.64644 0.19053 0.0272185
15445 1 0.673658 0.19053 0.0272185
15522 1 0.666854 0.217748 0.054437
16093 1 0.700877 0.19053 0.0272185
16170 1 0.694072 0.217748 0.054437
16741 1 0.728095 0.19053 0.0272185
16818 1 0.721291 0.217748 0.054437
17389 1 0.755314 0.19053 0.0272185
17466 1 0.748509 0.217748 0.054437
18037 1 0.782532 0.19053 0.0272185
18114 1 0.775728 0.217748 0.054437
18685 1 0.809751 0.19053 0.0272185
18762 1 0.802946 0.217748 0.054437
19333 1 0.836969 0.19053 0.0272185
19410 1 0.830165 0.217748 0.054437
19981 1 0.864188 0.19053 0.0272185
20058 1 0.857383 0.217748 0.054437
20629 1 0.891406 0.19053 0.0272185
20706 1 0.884602 0.217748 0.054437
21277 1 0.918625 0.19053 0.0272185
21354 1 0.91182 0.217748 0.054437
21925 1 0.945843 0.19053 0.0272185
22002 1 0.939039 0.217748 0.054437
22573 1 0.973062 0.19053 0.0272185
22650 1 0.966257 0.217748 0.054437
23260 1 0.993476 0.217748 0.054437
103 1 0.00680463 0.244967 0.0272185
614 1 0.0272185 0.272185 0.054437
617 1 0.0340231 0.244967 0.0272185
1262 1 0.054437 0.272185 0.054437
1265 1 0.0612417 0.244967 0.0272185
1910 1 0.0816555 0.272185 0.054437
1913 1 0.0884602 0.244967 0.0272185
2558 1 0.108874 0.272185 0.054437
2561 1 0.115679 0.244967 0.0272185
3206 1 0.136093 0.272185 0.054437
3209 1 0.142897 0.244967 0.0272185
3854 1 0.163311 0.272185 0.054437
3857 1 0.170116 0.244967 0.0272185
4502 1 0.19053 0.272185 0.054437
4505 1 0.197334 0.244967 0.0272185
5150 1 0.217748 0.272185 0.054437
5153 1 0.224553 0.244967 0.0272185
5798 1 0.244967 0.272185 0.054437
5801 1 0.251771 0.244967 0.0272185
6446 1 0.272185 0.272185 0.054437
6449 1 0.27899 0.244967 0.0272185
7094 1 0.299404 0.272185 0.054437
7097 1 0.306208 0.244967 0.0272185
7742 1 0.326622 0.272185 0.054437
7745 1 0.333427 0.244967 0.0272185
8390 1 0.353841 0.272185 0.054437
8393 1 0.360645 0.244967 0.0272185
9038 1 0.381059 0.272185 0.054437
9041 1 0.387864 0.244967 0.0272185
9686 1 0.408278 0.272185 0.054437
9689 1 0.415082 0.244967 0.0272185
10334 1 0.435496 0.272185 0.054437
10337 1 0.442301 0.244967 0.0272185
10982 1 0.462715 0.272185 0.054437
10985 1 0.469519 0.244967 0.0272185
11630 1 0.489933 0.272185 0.054437
11633 1 0.496738 0.244967 0.0272185
12278 1 0.517152 0.272185 0.054437
12281 1 0.523956 0.244967 0.0272185
12926 1 0.54437 0.272185 0.054437
12929 1 0.551175 0.244967 0.0272185
13574 1 0.571589 0.272185 0.054437
13577 1 0.578393 0.244967 0.0272185
14222 1 0.598807 0.272185 0.054437
14225 1 0.605612 0.244967 0.0272185
14870 1 0.626026 0.272185 0.054437
14873 1 0.63283 0.244967 0.0272185
15518 1 0.653244 0.272185 0.054437
15521 1 0.660049 0.244967 0.0272185
16166 1 0.680463 0.272185 0.054437
16169 1 0.687267 0.244967 0.0272185
16814 1 0.707681 0.272185 0.054437
16817 1 0.714486 0.244967 0.0272185
17462 1 0.7349 0.272185 0.054437
17465 1 0.741704 0.244967 0.0272185
18110 1 0.762118 0.272185 0.054437
18113 1 0.768923 0.244967 0.0272185
18758 1 0.789337 0.272185 0.054437
18761 1 0.796141 0.244967 0.0272185
19406 1 0.816555 0.272185 0.054437
19409 1 0.82336 0.244967 0.0272185
20054 1 0.843774 0.272185 0.054437
20057 1 0.850578 0.244967 0.0272185
20702 1 0.870992 0.272185 0.054437
20705 1 0.877797 0.244967 0.0272185
21350 1 0.898211 0.272185 0.054437
21353 1 0.905016 0.244967 0.0272185
21998 1 0.925429 0.272185 0.054437
22001 1 0.932234 0.244967 0.0272185
22646 1 0.952648 0.272185 0.054437
22649 1 0.959453 0.244967 0.0272185
23257 1 0.979866 0.272185 0.054437
23259 1 0.986671 0.244967 0.0272185
100 1 0.0204139 0.299404 0.0272185
158 1 0.0136093 0.326622 0.054437
613 1 0.0476324 0.299404 0.0272185
690 1 0.0408278 0.326622 0.054437
1261 1 0.0748509 0.299404 0.0272185
1338 1 0.0680463 0.326622 0.054437
1909 1 0.102069 0.299404 0.0272185
1986 1 0.0952648 0.326622 0.054437
2557 1 0.129288 0.299404 0.0272185
2634 1 0.122483 0.326622 0.054437
3205 1 0.156506 0.299404 0.0272185
3282 1 0.149702 0.326622 0.054437
3853 1 0.183725 0.299404 0.0272185
3930 1 0.17692 0.326622 0.054437
4501 1 0.210943 0.299404 0.0272185
4578 1 0.204139 0.326622 0.054437
5149 1 0.238162 0.299404 0.0272185
5226 1 0.231357 0.326622 0.054437
5797 1 0.26538 0.299404 0.0272185
5874 1 0.258576 0.326622 0.054437
6445 1 0.292599 0.299404 0.0272185
6522 1 0.285794 0.326622 0.054437
7093 1 0.319818 0.299404 0.0272185
7170 1 0.313013 0.326622 0.054437
7818 1 0.340231 0.326622 0.054437
7741 1 0.347036 0.299404 0.0272185
8466 1 0.36745 0.326622 0.054437
8389 1 0.374255 0.299404 0.0272185
9114 1 0.394668 0.326622 0.054437
9037 1 0.401473 0.299404 0.0272185
9762 1 0.421887 0.326622 0.054437
9685 1 0.428692 0.299404 0.0272185
10410 1 0.449105 0.326622 0.054437
10333 1 0.45591 0.299404 0.0272185
11058 1 0.476324 0.326622 0.054437
10981 1 0.483129 0.299404 0.0272185
11706 1 0.503542 0.326622 0.054437
11629 1 0.510347 0.299404 0.0272185
12354 1 0.530761 0.326622 0.054437
12277 1 0.537566 0.299404 0.0272185
13002 1 0.557979 0.326622 0.054437
12925 1 0.564784 0.299404 0.0272185
13650 1 0.585198 0.326622 0.054437
13573 1 0.592003 0.299404 0.0272185
14298 1 0.612417 0.326622 0.054437
14221 1 0.619221 0.299404 0.0272185
14946 1 0.639635 0.326622 0.054437
14869 1 0.64644 0.299404 0.0272185
15517 1 0.673658 0.299404 0.0272185
15594 1 0.666854 0.326622 0.054437
16165 1 0.700877 0.299404 0.0272185
16242 1 0.694072 0.326622 0.054437
16813 1 0.728095 0.299404 0.0272185
16890 1 0.721291 0.326622 0.054437
17461 1 0.755314 0.299404 0.0272185
17538 1 0.748509 0.326622 0.054437
18109 1 0.782532 0.299404 0.0272185
18186 1 0.775728 0.326622 0.054437
18757 1 0.809751 0.299404 0.0272185
18834 1 0.802946 0.326622 0.054437
19405 1 0.836969 0.299404 0.0272185
19482 1 0.830165 0.326622 0.054437
20053 1 0.864188 0.299404 0.0272185
20130 1 0.857383 0.326622 0.054437
20701 1 0.891406 0.299404 0.0272185
20778 1 0.884602 0.326622 0.054437
21349 1 0.918625 0.299404 0.0272185
21426 1 0.91182 0.326622 0.054437
21997 1 0.945843 0.299404 0.0272185
22074 1 0.939039 0.326622 0.054437
22645 1 0.973062 0.299404 0.0272185
22722 1 0.966257 0.326622 0.054437
23314 1 0.993476 0.326622 0.054437
157 1 0.00680463 0.353841 0.0272185
686 1 0.0272185 0.381059 0.054437
689 1 0.0340231 0.353841 0.0272185
1334 1 0.054437 0.381059 0.054437
1337 1 0.0612417 0.353841 0.0272185
1982 1 0.0816555 0.381059 0.054437
1985 1 0.0884602 0.353841 0.0272185
2630 1 0.108874 0.381059 0.054437
2633 1 0.115679 0.353841 0.0272185
3278 1 0.136093 0.381059 0.054437
3281 1 0.142897 0.353841 0.0272185
3926 1 0.163311 0.381059 0.054437
3929 1 0.170116 0.353841 0.0272185
4574 1 0.19053 0.381059 0.054437
4577 1 0.197334 0.353841 0.0272185
5222 1 0.217748 0.381059 0.054437
5225 1 0.224553 0.353841 0.0272185
5870 1 0.244967 0.381059 0.054437
5873 1 0.251771 0.353841 0.0272185
6518 1 0.272185 0.381059 0.054437
6521 1 0.27899 0.353841 0.0272185
7166 1 0.299404 0.381059 0.054437
7169 1 0.306208 0.353841 0.0272185
7814 1 0.326622 0.381059 0.054437
7817 1 0.333427 0.353841 0.0272185
8462 1 0.353841 0.381059 0.054437
8465 1 0.360645 0.353841 0.0272185
9110 1 0.381059 0.381059 0.054437
9113 1 0.387864 0.353841 0.0272185
9758 1 0.408278 0.381059 0.054437
9761 1 0.415082 0.353841 0.0272185
10406 1 0.435496 0.381059 0.054437
10409 1 0.442301 0.353841 0.0272185
11054 1 0.462715 0.381059 0.054437
11057 1 0.469519 0.353841 0.0272185
11702 1 0.489933 0.381059 0.054437
11705 1 0.496738 0.353841 0.0272185
12350 1 0.517152 0.381059 0.054437
12353 1 0.523956 0.353841 0.0272185
12998 1 0.54437 0.381059 0.054437
13001 1 0.551175 0.353841 0.0272185
13646 1 0.571589 0.381059 0.054437
13649 1 0.578393 0.353841 0.0272185
14294 1 0.598807 0.381059 0.054437
14297 1 0.605612 0.353841 0.0272185
14942 1 0.626026 0.381059 0.054437
14945 1 0.63283 0.353841 0.0272185
15590 1 0.653244 0.381059 0.054437
15593 1 0.660049 0.353841 0.0272185
16238 1 0.680463 0.381059 0.054437
16241 1 0.687267 0.353841 0.0272185
16886 1 0.707681 0.381059 0.054437
16889 1 0.714486 0.353841 0.0272185
17534 1 0.7349 0.381059 0.054437
17537 1 0.741704 0.353841 0.0272185
18182 1 0.762118 0.381059 0.054437
18185 1 0.768923 0.353841 0.0272185
18830 1 0.789337 0.381059 0.054437
18833 1 0.796141 0.353841 0.0272185
19478 1 0.816555 0.381059 0.054437
19481 1 0.82336 0.353841 0.0272185
20126 1 0.843774 0.381059 0.054437
20129 1 0.850578 0.353841 0.0272185
20774 1 0.870992 0.381059 0.054437
20777 1 0.877797 0.353841 0.0272185
21422 1 0.898211 0.381059 0.054437
21425 1 0.905016 0.353841 0.0272185
22070 1 0.925429 0.381059 0.054437
22073 1 0.932234 0.353841 0.0272185
22718 1 0.952648 0.381059 0.054437
22721 1 0.959453 0.353841 0.0272185
23311 1 0.979866 0.381059 0.054437
23313 1 0.986671 0.353841 0.0272185
154 1 0.0204139 0.408278 0.0272185
212 1 0.0136093 0.435496 0.054437
685 1 0.0476324 0.408278 0.0272185
762 1 0.0408278 0.435496 0.054437
1333 1 0.0748509 0.408278 0.0272185
1410 1 0.0680463 0.435496 0.054437
1981 1 0.102069 0.408278 0.0272185
2058 1 0.0952648 0.435496 0.054437
2629 1 0.129288 0.408278 0.0272185
2706 1 0.122483 0.435496 0.054437
3277 1 0.156506 0.408278 0.0272185
3354 1 0.149702 0.435496 0.054437
3925 1 0.183725 0.408278 0.0272185
4002 1 0.17692 0.435496 0.054437
4573 1 0.210943 0.408278 0.0272185
4650 1 0.204139 0.435496 0.054437
5221 1 0.238162 0.408278 0.0272185
5298 1 0.231357 0.435496 0.054437
5869 1 0.26538 0.408278 0.0272185
5946 1 0.258576 0.435496 0.054437
6517 1 0.292599 0.408278 0.0272185
6594 1 0.285794 0.435496 0.054437
7165 1 0.319818 0.408278 0.0272185
7242 1 0.313013 0.435496 0.054437
7890 1 0.340231 0.435496 0.054437
7813 1 0.347036 0.408278 0.0272185
8538 1 0.36745 0.435496 0.054437
8461 1 0.374255 0.408278 0.0272185
9186 1 0.394668 0.435496 0.054437
9109 1 0.401473 0.408278 0.0272185
9834 1 0.421887 0.435496 0.054437
9757 1 0.428692 0.408278 0.0272185
10482 1 0.449105 0.435496 0.054437
10405 1 0.45591 0.408278 0.0272185
11130 1 0.476324 0.435496 0.054437
11053 1 0.483129 0.408278 0.0272185
11778 1 0.503542 0.435496 0.054437
11701 1 0.510347 0.408278 0.0272185
12426 1 0.530761 0.435496 0.054437
12349 1 0.537566 0.408278 0.0272185
13074 1 0.557979 0.435496 0.054437
12997 1 0.564784 0.408278 0.0272185
13722 1 0.585198 0.435496 0.054437
13645 1 0.592003 0.408278 0.0272185
14370 1 0.612417 0.435496 0.054437
14293 1 0.619221 0.408278 0.0272185
15018 1 0.639635 0.435496 0.054437
14941 1 0.64644 0.408278 0.0272185
15589 1 0.673658 0.408278 0.0272185
15666 1 0.666854 0.435496 0.054437
16237 1 0.700877 0.408278 0.0272185
16314 1 0.694072 0.435496 0.054437
16885 1 0.728095 0.408278 0.0272185
16962 1 0.721291 0.435496 0.054437
17533 1 0.755314 0.408278 0.0272185
17610 1 0.748509 0.435496 0.054437
18181 1 0.782532 0.408278 0.0272185
18258 1 0.775728 0.435496 0.054437
18829 1 0.809751 0.408278 0.0272185
18906 1 0.802946 0.435496 0.054437
19477 1 0.836969 0.408278 0.0272185
19554 1 0.830165 0.435496 0.054437
20125 1 0.864188 0.408278 0.0272185
20202 1 0.857383 0.435496 0.054437
20773 1 0.891406 0.408278 0.0272185
20850 1 0.884602 0.435496 0.054437
21421 1 0.918625 0.408278 0.0272185
21498 1 0.91182 0.435496 0.054437
22069 1 0.945843 0.408278 0.0272185
22146 1 0.939039 0.435496 0.054437
22717 1 0.973062 0.408278 0.0272185
22794 1 0.966257 0.435496 0.054437
23368 1 0.993476 0.435496 0.054437
211 1 0.00680463 0.462715 0.0272185
758 1 0.0272185 0.489933 0.054437
761 1 0.0340231 0.462715 0.0272185
1406 1 0.054437 0.489933 0.054437
1409 1 0.0612417 0.462715 0.0272185
2054 1 0.0816555 0.489933 0.054437
2057 1 0.0884602 0.462715 0.0272185
2702 1 0.108874 0.489933 0.054437
2705 1 0.115679 0.462715 0.0272185
3350 1 0.136093 0.489933 0.054437
3353 1 0.142897 0.462715 0.0272185
3998 1 0.163311 0.489933 0.054437
4001 1 0.170116 0.462715 0.0272185
4646 1 0.19053 0.489933 0.054437
4649 1 0.197334 0.462715 0.0272185
5294 1 0.217748 0.489933 0.054437
5297 1 0.224553 0.462715 0.0272185
5942 1 0.244967 0.489933 0.054437
5945 1 0.251771 0.462715 0.0272185
6590 1 0.272185 0.489933 0.054437
6593 1 0.27899 0.462715 0.0272185
7238 1 0.299404 0.489933 0.054437
7241 1 0.306208 0.462715 0.0272185
7886 1 0.326622 0.489933 0.054437
7889 1 0.333427 0.462715 0.0272185
8534 1 0.353841 0.489933 0.054437
8537 1 0.360645 0.462715 0.0272185
9182 1 0.381059 0.489933 0.054437
9185 1 0.387864 0.462715 0.0272185
9830 1 0.408278 0.489933 0.054437
9833 1 0.415082 0.462715 0.0272185
10478 1 0.435496 0.489933 0.054437
10481 1 0.442301 0.462715 0.0272185
11126 1 0.462715 0.489933 0.054437
11129 1 0.469519 0.462715 0.0272185
11774 1 0.489933 0.489933 0.054437
11777 1 0.496738 0.462715 0.0272185
12422 1 0.517152 0.489933 0.054437
12425 1 0.523956 0.462715 0.0272185
13070 1 0.54437 0.489933 0.054437
13073 1 0.551175 0.462715 0.0272185
13718 1 0.571589 0.489933 0.054437
13721 1 0.578393 0.462715 0.0272185
14366 1 0.598807 0.489933 0.054437
14369 1 0.605612 0.462715 0.0272185
15014 1 0.626026 0.489933 0.054437
15017 1 0.63283 0.462715 0.0272185
15662 1 0.653244 0.489933 0.054437
15665 1 0.660049 0.462715 0.0272185
16310 1 0.680463 0.489933 0.054437
16313 1 0.687267 0.462715 0.0272185
16958 1 0.707681 0.489933 0.054437
16961 1 0.714486 0.462715 0.0272185
17606 1 0.7349 0.489933 0.054437
17609 1 0.741704 0.462715 0.0272185
18254 1 0.762118 0.489933 0.054437
18257 1 0.768923 0.462715 0.0272185
18902 1 0.789337 0.489933 0.054437
18905 1 0.796141 0.462715 0.0272185
19550 1 0.816555 0.489933 0.054437
19553 1 0.82336 0.462715 0.0272185
20198 1 0.843774 0.489933 0.054437
20201 1 0.850578 0.462715 0.0272185
20846 1 0.870992 0.489933 0.054437
20849 1 0.877797 0.462715 0.0272185
21494 1 0.898211 0.489933 0.054437
21497 1 0.905016 0.462715 0.0272185
22142 1 0.925429 0.489933 0.054437
22145 1 0.932234 0.462715 0.0272185
22790 1 0.952648 0.489933 0.054437
22793 1 0.959453 0.462715 0.0272185
23365 1 0.979866 0.489933 0.054437
23367 1 0.986671 0.462715 0.0272185
208 1 0.0204139 0.517152 0.0272185
266 1 0.0136093 0.54437 0.054437
757 1 0.0476324 0.517152 0.0272185
834 1 0.0408278 0.54437 0.054437
1405 1 0.0748509 0.517152 0.0272185
1482 1 0.0680463 0.54437 0.054437
2053 1 0.102069 0.517152 0.0272185
2130 1 0.0952648 0.54437 0.054437
2701 1 0.129288 0.517152 0.0272185
2778 1 0.122483 0.54437 0.054437
3349 1 0.156506 0.517152 0.0272185
3426 1 0.149702 0.54437 0.054437
3997 1 0.183725 0.517152 0.0272185
4074 1 0.17692 0.54437 0.054437
4645 1 0.210943 0.517152 0.0272185
4722 1 0.204139 0.54437 0.054437
5293 1 0.238162 0.517152 0.0272185
5370 1 0.231357 0.54437 0.054437
5941 1 0.26538 0.517152 0.0272185
6018 1 0.258576 0.54437 0.054437
6589 1 0.292599 0.517152 0.0272185
6666 1 0.285794 0.54437 0.054437
7237 1 0.319818 0.517152 0.0272185
7314 1 0.313013 0.54437 0.054437
7962 1 0.340231 0.54437 0.054437
7885 1 0.347036 0.517152 0.0272185
8610 1 0.36745 0.54437 0.054437
8533 1 0.374255 0.517152 0.0272185
9258 1 0.394668 0.54437 0.054437
9181 1 0.401473 0.517152 0.0272185
9906 1 0.421887 0.54437 0.054437
9829 1 0.428692 0.517152 0.0272185
10554 1 0.449105 0.54437 0.054437
10477 1 0.45591 0.517152 0.0272185
11202 1 0.476324 0.54437 0.054437
11125 1 0.483129 0.517152 0.0272185
11850 1 0.503542 0.54437 0.054437
11773 1 0.510347 0.517152 0.0272185
12498 1 0.530761 0.54437 0.054437
12421 1 0.537566 0.517152 0.0272185
13146 1 0.557979 0.54437 0.054437
13069 1 0.564784 0.517152 0.0272185
13794 1 0.585198 0.54437 0.054437
13717 1 0.592003 0.517152 0.0272185
14442 1 0.612417 0.54437 0.054437
14365 1 0.619221 0.517152 0.0272185
15090 1 0.639635 0.54437 0.054437
15013 1 0.64644 0.517152 0.0272185
15661 1 0.673658 0.517152 0.0272185
15738 1 0.666854 0.54437 0.054437
16309 1 0.700877 0.517152 0.0272185
16386 1 0.694072 0.54437 0.054437
16957 1 0.728095 0.517152 0.0272185
17034 1 0.721291 0.54437 0.054437
17605 1 0.755314 0.517152 0.0272185
17682 1 0.748509 0.54437 0.054437
18253 1 0.782532 0.517152 0.0272185
18330 1 0.775728 0.54437 0.054437
18901 1 0.809751 0.517152 0.0272185
18978 1 0.802946 0.54437 0.054437
19549 1 0.836969 0.517152 0.0272185
19626 1 0.830165 0.54437 0.054437
20197 1 0.864188 0.517152 0.0272185
20274 1 0.857383 0.54437 0.054437
20845 1 0.891406 0.517152 0.0272185
20922 1 0.884602 0.54437 0.054437
21493 1 0.918625 0.517152 0.0272185
21570 1 0.91182 0.54437 0.054437
22141 1 0.945843 0.517152 0.0272185
22218 1 0.939039 0.54437 0.054437
22789 1 0.973062 0.517152 0.0272185
22866 1 0.966257 0.54437 0.054437
23422 1 0.993476 0.54437 0.054437
265 1 0.00680463 0.571589 0.0272185
830 1 0.0272185 0.598807 0.054437
833 1 0.0340231 0.571589 0.0272185
1478 1 0.054437 0.598807 0.054437
1481 1 0.0612417 0.571589 0.0272185
2126 1 0.0816555 0.598807 0.054437
2129 1 0.0884602 0.571589 0.0272185
2774 1 0.108874 0.598807 0.054437
2777 1 0.115679 0.571589 0.0272185
3422 1 0.136093 0.598807 0.054437
3425 1 0.142897 0.571589 0.0272185
4070 1 0.163311 0.598807 0.054437
4073 1 0.170116 0.571589 0.0272185
4718 1 0.19053 0.598807 0.054437
4721 1 0.197334 0.571589 0.0272185
5366 1 0.217748 0.598807 0.054437
5369 1 0.224553 0.571589 0.0272185
6014 1 0.244967 0.598807 0.054437
6017 1 0.251771 0.571589 0.0272185
6662 1 0.272185 0.598807 0.054437
6665 1 0.27899 0.571589 0.0272185
7310 1 0.299404 0.598807 0.054437
7313 1 0.306208 0.571589 0.0272185
7958 1 0.326622 0.598807 0.054437
7961 1 0.333427 0.571589 0.0272185
8606 1 0.353841 0.598807 0.054437
8609 1 0.360645 0.571589 0.0272185
9254 1 0.381059 0.598807 0.054437
9257 1 0.387864 0.571589 0.0272185
9902 1 0.408278 0.598807 0.054437
9905 1 0.415082 0.571589 0.0272185
10550 1 0.435496 0.598807 0.054437
10553 1 0.442301 0.571589 0.0272185
11198 1 0.462715 0.598807 0.054437
11201 1 0.469519 0.571589 0.0272185
11846 1 0.489933 0.598807 0.054437
11849 1 0.496738 0.571589 0.0272185
12494 1 0.517152 0.598807 0.054437
12497 1 0.523956 0.571589 0.0272185
13142 1 0.54437 0.598807 0.054437
13145 1 0.551175 0.571589 0.0272185
13790 1 0.571589 0.598807 0.054437
13793 1 0.578393 0.571589 0.0272185
14438 1 0.598807 0.598807 0.054437
14441 1 0.605612 0.571589 0.0272185
15086 1 0.626026 0.598807 0.054437
15089 1 0.63283 0.571589 0.0272185
15734 1 0.653244 0.598807 0.054437
15737 1 0.660049 0.571589 0.0272185
16382 1 0.680463 0.598807 0.054437
16385 1 0.687267 0.571589 0.0272185
17030 1 0.707681 0.598807 0.054437
17033 1 0.714486 0.571589 0.0272185
17678 1 0.7349 0.598807 0.054437
17681 1 0.741704 0.571589 0.0272185
18326 1 0.762118 0.598807 0.054437
18329 1 0.768923 0.571589 0.0272185
18974 1 0.789337 0.598807 0.054437
18977 1 0.796141 0.571589 0.0272185
19622 1 0.816555 0.598807 0.054437
19625 1 0.82336 0.571589 0.0272185
20270 1 0.843774 0.598807 0.054437
20273 1 0.850578 0.571589 0.0272185
20918 1 0.870992 0.598807 0.054437
20921 1 0.877797 0.571589 0.0272185
21566 1 0.898211 0.598807 0.054437
21569 1 0.905016 0.571589 0.0272185
22214 1 0.925429 0.598807 0.054437
22217 1 0.932234 0.571589 0.0272185
22862 1 0.952648 0.598807 0.054437
22865 1 0.959453 0.571589 0.0272185
23419 1 0.979866 0.598807 0.054437
23421 1 0.986671 0.571589 0.0272185
262 1 0.0204139 0.626026 0.0272185
320 1 0.0136093 0.653244 0.054437
829 1 0.0476324 0.626026 0.0272185
906 1 0.0408278 0.653244 0.054437
1477 1 0.0748509 0.626026 0.0272185
1554 1 0.0680463 0.653244 0.054437
2125 1 0.102069 0.626026 0.0272185
2202 1 0.0952648 0.653244 0.054437
2773 1 0.129288 0.626026 0.0272185
2850 1 0.122483 0.653244 0.054437
3421 1 0.156506 0.626026 0.0272185
3498 1 0.149702 0.653244 0.054437
4069 1 0.183725 0.626026 0.0272185
4146 1 0.17692 0.653244 0.054437
4717 1 0.210943 0.626026 0.0272185
4794 1 0.204139 0.653244 0.054437
5365 1 0.238162 0.626026 0.0272185
5442 1 0.231357 0.653244 0.054437
6013 1 0.26538 0.626026 0.0272185
6090 1 0.258576 0.653244 0.054437
6661 1 0.292599 0.626026 0.0272185
6738 1 0.285794 0.653244 0.054437
7309 1 0.319818 0.626026 0.0272185
7386 1 0.313013 0.653244 0.054437
8034 1 0.340231 0.653244 0.054437
7957 1 0.347036 0.626026 0.0272185
8682 1 0.36745 0.653244 0.054437
8605 1 0.374255 0.626026 0.0272185
9330 1 0.394668 0.653244 0.054437
9253 1 0.401473 0.626026 0.0272185
9978 1 0.421887 0.653244 0.054437
9901 1 0.428692 0.626026 0.0272185
10626 1 0.449105 0.653244 0.054437
10549 1 0.45591 0.626026 0.0272185
11274 1 0.476324 0.653244 0.054437
11197 1 0.483129 0.626026 0.0272185
11922 1 0.503542 0.653244 0.054437
11845 1 0.510347 0.626026 0.0272185
12570 1 0.530761 0.653244 0.054437
12493 1 0.537566 0.626026 0.0272185
13218 1 0.557979 0.653244 0.054437
13141 1 0.564784 0.626026 0.0272185
13866 1 0.585198 0.653244 0.054437
13789 1 0.592003 0.626026 0.0272185
14514 1 0.612417 0.653244 0.054437
14437 1 0.619221 0.626026 0.0272185
15162 1 0.639635 0.653244 0.054437