LAMMPS (3 Mar 2020)
  using 1 OpenMP thread(s) per MPI task
Reading data file ...
  orthogonal box = (0 0 0) to (200 50 50)
  5 by 2 by 2 MPI processor grid
  reading atoms ...
  21461 atoms
  read_data CPU = 0.0635016 secs
Reading potential file Si.tersoff.mod with DATE: 2013-07-26
Neighbor list info ...
  update every 1 steps, delay 10 steps, check yes
  max neighbors/atom: 2000, page size: 100000
  master list distance cutoff = 5.3
  ghost atom cutoff = 5.3
  binsize = 2.65, bins = 76 19 19
  1 neighbor lists, perpetual/occasional/extra = 1 0 0
  (1) pair tersoff/mod, perpetual
      attributes: full, newton on
      pair build: full/bin/atomonly
      stencil: full/bin/3d
      bin: standard
Setting up Verlet run ...
  Unit style    : real
  Current step  : 0
  Time step     : 0.01
Per MPI rank memory allocation (min/avg/max) = 3.109 | 3.119 | 3.125 Mbytes
Step Temp E_pair E_mol TotEng Press 
       0          500   -91793.713            0   -59809.621    2945.7786 
      77    501.08561   -91863.158            0   -59809.622    2947.7004 
     154    504.56643   -92085.831            0   -59809.633    2953.6602 
     231    509.79586   -92420.395            0    -59809.68    2961.5675 
     308    515.91657   -92812.051            0   -59809.805    2969.0501 
     385    522.10371   -93208.082            0   -59810.056    2974.4763 
     462    527.72923   -93568.366            0   -59810.486    2977.4149 
     539    532.41613   -93868.836            0   -59811.143    2978.4896 
     616    536.00998   -94099.652            0   -59812.067    2978.9023 
     693    538.51323   -94261.003            0   -59813.289    2979.9449 
     770    540.01809   -94358.807            0   -59814.831    2982.6834 
     847    540.65476   -94401.408            0   -59816.705    2987.8577 
     924    540.55885   -94397.481            0   -59818.913    2995.9153 
    1001     539.8541   -94354.939            0   -59821.453    3007.0301 
    1078    538.64526   -94280.474            0   -59824.315    3021.1233 
    1155    537.01668   -94179.468            0   -59827.486    3037.9491 
    1232    535.03415   -94056.112            0   -59830.949    3057.2401 
    1309    532.74844   -93913.632            0   -59834.682    3078.8472 
    1386    530.19926   -93754.547            0   -59838.663     3102.767 
    1463    527.41878   -93580.887            0   -59842.866    3129.0144 
    1540    524.43394    -93394.35            0   -59847.263    3157.4641 
    1617    521.26765   -93196.371            0   -59851.827    3187.8074 
    1694     517.9395   -92988.175            0   -59856.526    3219.6748 
    1771    514.46639   -92770.811            0   -59861.331    3252.7862 
    1848    510.86319   -92545.199            0   -59866.209     3287.011 
    1925    507.14318   -92312.157            0   -59871.129     3322.308 
    2002    503.31827   -92072.414            0   -59876.058    3358.5921 
    2079    499.39624   -91826.435            0   -59880.964     3395.202 
    2156    495.38225   -91574.518            0   -59885.815    3432.3468 
    2233    491.29252   -91317.668            0   -59890.578    3471.2906 
    2310    487.14997   -91057.321            0   -59895.222    3512.0466 
    2387    482.96924   -90794.382            0   -59899.717    3553.3498 
    2464    478.75547    -90529.15            0   -59904.032    3594.3852 
    2541      474.514   -90261.938            0   -59908.139    3635.3549 
    2618    470.25381   -89993.292            0    -59912.01    3676.4111 
    2695    465.98379   -89723.755            0   -59915.619    3717.4614 
    2772    461.71147   -89453.784            0    -59918.94    3758.4166 
    2849    457.44279   -89183.732            0   -59921.948    3799.2009 
    2926    453.18193   -88913.845            0    -59924.62    3839.7496 
    3003    448.93137    -88644.26            0   -59926.935    3880.0063 
    3080      444.692   -88375.012            0   -59928.872    3919.9156 
    3157    440.46325   -88106.044            0    -59930.41    3959.4258 
    3234    436.24337   -87837.227            0   -59931.531    3998.4948 
    3311     432.0297   -87568.372            0   -59932.217    4037.0923 
    3388    427.81892   -87299.249            0    -59932.45    4075.2001 
    3465    423.60726   -87029.603            0   -59932.215    4112.8116 
    3542    419.39077   -86759.163            0   -59931.497    4149.9274 
    3619    415.16552   -86487.664            0    -59930.28     4186.547 
    3696    410.92785   -86214.859            0    -59928.55    4222.6623 
    3773    406.67469   -85940.537            0   -59926.296    4258.2584 
    3850    402.40373    -85664.54            0   -59923.505    4293.3076 
    3927    398.11375   -85386.779            0   -59920.166    4327.7718 
    4004    393.80479   -85107.247            0    -59916.27    4361.6132 
    4081    389.47833   -84826.031            0   -59911.809    4394.7988 
    4158    385.13747   -84543.322            0   -59906.777    4427.2977 
    4235    380.78702   -84259.424            0    -59901.17     4459.079 
    4312    376.43366   -83974.763            0   -59894.986    4490.1068 
    4389    372.08598   -83689.891            0   -59888.227    4520.3347 
    4466    367.75464   -83405.493            0   -59880.896    4549.7024 
    4543    363.45227   -83122.386            0   -59873.004    4578.1351 
    4620    359.19344   -82841.515            0   -59864.563    4605.5461 
    4697     354.9945   -82563.943            0    -59855.59    4631.8405 
    4774    350.87323   -82290.831            0   -59846.108    4656.9203 
    4851     346.8485   -82023.413            0   -59836.144    4680.6839 
    4928    342.93972   -81762.965            0   -59825.734    4703.0282 
    5005    339.16636   -81510.771            0   -59814.915    4723.8522 
    5082    335.54726   -81268.081            0   -59803.732      4743.06 
    5159     332.1001   -81036.073            0   -59792.233    4760.5631 
    5236     328.8407   -80815.813            0    -59780.47    4776.2825 
    5313    325.78257   -80608.219            0     -59768.5    4790.1517 
    5390    322.93635   -80414.028            0   -59756.376    4802.1175 
    5467     320.3095   -80233.771            0   -59744.154    4812.1411 
    5544    317.90603   -80067.758            0   -59731.887    4820.1971 
    5621     315.7264   -79916.067            0   -59719.622    4826.2741 
    5698    313.76761   -79778.547            0   -59707.403    4830.3749 
    5775    312.02337   -79654.831            0   -59695.262    4832.5136 
    5852    310.48447   -79544.356            0   -59683.228    4832.7131 
    5929    309.13917   -79446.389            0   -59671.318    4830.9983 
    6006    307.97383   -79360.066            0    -59659.54    4827.4088 
    6083    306.97349   -79284.431            0   -59647.894    4822.0094 
    6160    306.12257   -79218.478            0   -59636.374    4814.8857 
    6237    305.40541   -79161.192            0   -59624.963    4806.1322 
    6314    304.80674   -79111.576            0   -59613.643    4795.8403 
    6391    304.31199   -79068.673            0   -59602.388    4784.0938 
    6468    303.90756   -79031.588            0   -59591.173    4770.9661 
    6545    303.58098   -78999.493            0   -59579.969    4756.5235 
    6622    303.32102   -78971.642            0   -59568.747    4740.8341 
    6699    303.11783   -78947.374            0   -59557.478    4723.9806 
    6776    302.96297   -78926.125            0   -59546.134    4706.0547 
    6853    302.84945    -78907.42            0   -59534.691    4687.1479 
    6930    302.77171   -78890.881            0   -59523.125     4667.348 
    7007    302.72553   -78876.216            0   -59511.414    4646.7389 
    7084     302.7079   -78863.215            0    -59499.54    4625.3955 
    7161    302.71692   -78851.741            0   -59487.489    4603.3831 
    7238    302.75167   -78841.722            0   -59475.247     4580.751 
    7315    302.81201    -78833.14            0   -59462.806    4557.5282 
    7392    302.89845   -78826.021            0   -59450.157    4533.7327 
    7469    303.01209    -78820.43            0   -59437.297    4509.3783 
    7546    303.15442   -78816.462            0   -59424.224     4484.474 
    7623    303.32731   -78814.236            0   -59410.939    4459.0211 
    7700    303.53295   -78813.895            0   -59397.443    4433.0142 
    7777    303.77375   -78815.597            0   -59383.742     4406.446 
    7854     304.0523   -78819.514            0    -59369.84    4379.3089 
    7931    304.37128   -78825.823            0   -59355.745    4351.6023 
    8008    304.73329   -78834.699            0   -59341.464    4323.3377 
    8085    305.14071   -78846.301            0   -59327.004    4294.5363 
    8162    305.59551   -78860.765            0   -59312.375    4265.2212 
    8239    306.09917   -78878.192            0   -59297.584    4235.4083 
    8316    306.65256   -78898.648            0   -59282.641    4205.1093 
    8393    307.25587   -78922.152            0   -59267.551      4174.34 
    8470    307.90863    -78948.68            0   -59252.324    4143.1192 
    8547    308.60969   -78978.168            0   -59236.966    4111.4719 
    8624    309.35723   -79010.504            0   -59221.483    4079.4295 
    8701    310.14884   -79045.539            0   -59205.881    4047.0266 
    8778    310.98146   -79083.084            0   -59190.165    4014.2907 
    8855    311.85138   -79122.905            0   -59174.339    3981.2345 
    8932    312.75433   -79164.733            0   -59158.406    3947.8846 
    9009    313.68563   -79208.271            0   -59142.371     3914.289 
    9086    314.64043   -79253.213            0   -59126.236    3880.5073 
    9163    315.61375   -79299.241            0   -59110.003    3846.5954 
    9240    316.60052   -79346.035            0   -59093.675    3812.5959 
    9317    317.59564    -79393.27            0   -59077.254    3778.5368 
    9394    318.59396   -79440.618            0    -59060.74     3744.441 
    9471    319.59042   -79487.756            0   -59044.137     3710.334 
    9548    320.58012   -79534.374            0   -59027.446    3676.2507 
    9625    321.55848   -79580.179            0   -59010.668    3642.2381 
    9702    322.52134   -79624.908            0   -58993.804     3608.352 
    9779      323.465   -79668.325            0   -58976.857    3574.6445 
    9856    324.38621   -79710.224            0   -58959.827    3541.1584 
    9933    325.28218   -79750.427            0   -58942.717    3507.9193 
   10010    326.15054   -79788.787            0   -58925.529    3474.9434 
   10087    326.98942   -79825.183            0   -58908.263    3442.2498 
   10164     327.7974   -79859.527            0   -58890.922    3409.8614 
   10241    328.57358   -79891.763            0   -58873.508    3377.8029 
   10318    329.31747   -79921.861            0   -58856.021    3346.0955 
   10395      330.029    -79949.82            0   -58838.464    3314.7622 
   10472    330.70841   -79975.656            0   -58820.839     3283.825 
   10549    331.35626   -79999.405            0   -58803.147    3253.2947 
   10626    331.97329   -80021.118            0    -58785.39    3223.1677 
   10703    332.56047   -80040.859            0   -58767.569    3193.4341 
   10780    333.11896   -80058.701            0   -58749.686     3164.084 
   10857    333.65013   -80074.736            0   -58731.743      3135.11 
   10934    334.15557   -80089.064            0    -58713.74    3106.5092 
   11011    334.63706   -80101.803            0   -58695.679    3078.2817 
   11088    335.09656   -80113.079            0   -58677.561     3050.431 
   11165    335.53614   -80123.024            0   -58659.387    3022.9631 
   11242    335.95784   -80131.771            0   -58641.158    2995.8823 
   11319    336.36366   -80139.448            0   -58622.876    2969.1839 
   11396    336.75535   -80146.168            0    -58604.54     2942.861 
   11473    337.13441   -80152.028            0   -58586.152    2916.9081 
   11550    337.50202   -80157.104            0   -58567.713    2891.3236 
   11627    337.85897   -80161.447            0   -58549.223    2866.1093 
   11704    338.20568   -80165.086            0   -58530.683    2841.2678 
   11781    338.54221   -80168.024            0   -58512.093    2816.7985 
   11858    338.86829   -80170.244            0   -58493.455    2792.7052 
   11935     339.1834   -80171.715            0   -58474.769    2768.9957 
   12012    339.48694   -80172.398            0   -58456.036    2745.6764 
   12089    339.77829   -80172.256            0   -58437.256    2722.7505 
   12166    340.05691   -80171.254            0   -58418.431    2700.2152 
   12243    340.32245    -80169.37            0   -58399.561    2678.0595 
   12320    340.57471   -80166.594            0   -58380.648    2656.2748 
   12397    340.81373   -80162.927            0   -58361.692    2634.8506 
   12474    341.03973   -80158.386            0   -58342.693    2613.7735 
   12551    341.25305   -80152.991            0   -58323.653    2593.0326 
   12628    341.45409   -80146.771            0   -58304.573    2572.6201 
   12705    341.64329   -80139.753            0   -58285.452    2552.5322 
   12782    341.82103   -80131.963            0   -58266.293    2532.7689 
   12859    341.98765   -80123.423            0   -58247.094    2513.3348 
   12936    342.14341    -80114.15            0   -58227.857    2494.2364 
   13013    342.28854   -80104.159            0   -58208.583    2475.4802 
   13090    342.42318    -80093.46            0   -58189.271    2457.0616 
   13167    342.54732   -80082.053            0   -58169.923    2438.9685 
   13244    342.66087   -80069.933            0   -58150.539    2421.1949 
   13321    342.76364   -80057.087            0    -58131.12     2403.741 
   13398    342.85545   -80043.506            0   -58111.665    2386.6066 
   13475    342.93614   -80029.179            0   -58092.177     2369.792 
   13552    343.00564   -80014.102            0   -58072.654    2353.2985 
   13629      343.064   -79998.279            0   -58053.098    2337.1243 
   13706    343.11137   -79981.721            0   -58033.509    2321.2591 
   13783    343.14804   -79964.445            0   -58013.888    2305.6838 
   13860    343.17435   -79946.475            0   -57994.235    2290.3762 
   13937     343.1907   -79927.836            0    -57974.55    2275.3148 
   14014    343.19756   -79908.559            0   -57954.835    2260.4805 
   14091    343.19548    -79888.68            0   -57935.089    2245.8643 
   14168    343.18505   -79868.236            0   -57915.312    2231.4635 
   14245    343.16689   -79847.268            0   -57895.506     2217.281 
   14322    343.14165   -79825.817            0   -57875.669    2203.3233 
   14399    343.10997   -79803.925            0   -57855.804    2189.5941 
   14476    343.07246   -79781.631            0   -57835.909    2176.0941 
   14553     343.0297   -79758.972            0   -57815.985    2162.8218 
   14630    342.98221   -79735.981            0   -57796.032    2149.7709 
   14707    342.93041   -79712.686            0    -57776.05    2136.9305 
   14784    342.87465   -79689.109            0    -57756.04    2124.2856 
   14861     342.8152   -79665.268            0   -57736.002    2111.8198 
   14938    342.75221   -79641.172            0   -57715.936     2099.513 
   15015    342.68578   -79616.828            0   -57695.841    2087.3434 
   15092    342.61589   -79592.235            0   -57675.719    2075.2859 
   15169    342.54245   -79567.387            0   -57655.569    2063.3183 
   15246    342.46532   -79542.277            0   -57635.392    2051.4318 
   15323    342.38439   -79516.896            0   -57615.188    2039.6286 
   15400    342.29959   -79491.239            0   -57594.956    2027.9147 
   15477    342.21086   -79465.305            0   -57574.698    2016.2969 
   15554     342.1182   -79439.093            0   -57554.413     2004.777 
   15631    342.02159   -79412.602            0   -57534.102    1993.3509 
   15708    341.92104   -79385.833            0   -57513.765    1982.0135 
   15785    341.81661    -79358.79            0   -57493.402    1970.7601 
   15862    341.70844   -79331.482            0   -57473.013    1959.5847 
   15939    341.59678   -79303.924            0   -57452.599    1948.4767 
   16016    341.48194   -79276.139            0    -57432.16    1937.4196 
   16093    341.36434   -79248.152            0   -57411.695    1926.3976 
   16170    341.24445   -79219.994            0   -57391.206    1915.3978 
   16247    341.12279   -79191.697            0   -57370.692    1904.4079 
   16324    340.99989   -79163.297            0   -57350.153     1893.418 
   16401    340.87632   -79134.829            0    -57329.59    1882.4208 
   16478    340.75265   -79106.329            0   -57309.002    1871.4112 
   16555    340.62947   -79077.837            0   -57288.389    1860.3855 
   16632    340.50741   -79049.392            0   -57267.752    1849.3402 
   16709    340.38707   -79021.032            0    -57247.09      1838.27 
   16786    340.26904   -78992.796            0   -57226.403    1827.1692 
   16863    340.15382   -78964.714            0   -57205.692    1816.0333 
   16940    340.04178   -78936.812            0   -57184.957    1804.8582 
   17017    339.93317   -78909.103            0   -57164.196    1793.6303 
   17094    339.82804   -78881.593            0    -57143.41    1782.3298 
   17171    339.72629   -78854.274            0     -57122.6     1770.946 
   17248    339.62776   -78827.136            0   -57101.765    1759.4806 
   17325    339.53221   -78800.163            0   -57080.904     1747.947 
   17402    339.43941   -78773.342            0   -57060.019    1736.3638 
   17479    339.34915   -78746.658            0   -57039.109    1724.7521 
   17556    339.26124     -78720.1            0   -57018.174    1713.1318 
   17633    339.17557    -78693.66            0   -56997.215     1701.525 
   17710      339.092   -78667.329            0    -56976.23    1689.9569 
   17787    339.01036   -78641.098            0   -56955.221    1678.4579 
   17864    338.93039   -78614.949            0   -56934.188    1667.0617 
   17941    338.85171   -78588.858            0    -56913.13    1655.8024 
   18018     338.7738   -78562.792            0   -56892.047    1644.7127 
   18095    338.69601    -78536.71            0   -56870.941    1633.8173 
   18172    338.61762   -78510.565            0   -56849.811    1623.1274 
   18249    338.53787   -78484.309            0   -56828.657    1612.6373 
   18326    338.45602   -78457.896            0   -56807.479    1602.3286 
   18403    338.37143   -78431.284            0   -56786.278    1592.1696 
   18480     338.2836   -78404.442            0   -56765.054    1582.1236 
   18557    338.19215   -78377.346            0   -56743.808    1572.1595 
   18634    338.09685   -78349.981            0   -56722.539    1562.2595 
   18711    337.99752   -78322.336            0   -56701.249    1552.4232 
   18788    337.89401   -78294.403            0   -56679.936     1542.664 
   18865    337.78613   -78266.168            0   -56658.603     1532.991 
   18942    337.67367   -78237.619            0   -56637.248    1523.4023 
   19019     337.5564   -78208.742            0   -56615.872    1513.8766 
   19096    337.43407    -78179.52            0   -56594.476    1504.3941 
   19173    337.30648   -78149.942            0   -56573.059    1494.9476 
   19250    337.17347   -78119.997            0   -56551.622    1485.5461 
   19327    337.03507   -78089.687            0   -56530.166    1476.2126 
   19404    336.89148   -78059.026            0    -56508.69    1466.9781 
   19481    336.74311    -78028.04            0   -56487.195    1457.8771 
   19558    336.59057   -77996.768            0   -56465.681     1448.938 
   19635    336.43461   -77965.259            0   -56444.148    1440.1753 
   19712    336.27607   -77933.566            0   -56422.596    1431.5918 
   19789    336.11584   -77901.746            0   -56401.026     1423.181 
   19866    335.95483   -77869.857            0   -56379.437    1414.9283 
   19943    335.79392   -77837.956            0   -56357.829    1406.8164 
   20020    335.63399   -77806.099            0   -56336.202    1398.8249 
   20097    335.47588   -77774.339            0   -56314.557    1390.9289 
   20174    335.32037   -77742.727            0   -56292.892    1383.1067 
   20251     335.1682   -77711.309            0   -56271.208    1375.3432 
   20328    335.02003   -77680.128            0   -56249.505    1367.6321 
   20405    334.87644    -77649.22            0   -56227.782    1359.9708 
   20482    334.73785   -77618.612            0   -56206.039     1352.358 
   20559    334.60451   -77588.319            0   -56184.276    1344.8016 
   20636    334.47648   -77558.346            0   -56162.494    1337.3184 
   20713    334.35362   -77528.684            0    -56140.69    1329.9273 
   20790    334.23562   -77499.312            0   -56118.866    1322.6417 
   20867    334.12202   -77470.201            0   -56097.022    1315.4638 
   20944    334.01222   -77441.312            0   -56075.157    1308.3903 
   21021    333.90559   -77412.605            0   -56053.271    1301.4114 
   21098    333.80147   -77384.038            0   -56031.364    1294.5052 
   21175    333.69926   -77355.573            0   -56009.437     1287.646 
   21252    333.59842   -77327.174            0   -55987.489    1280.8049 
   21329    333.49853   -77298.817            0   -55965.521    1273.9626 
   21406    333.39932   -77270.482            0   -55943.533    1267.1155 
   21483    333.30063    -77242.16            0   -55921.524    1260.2752 
   21560    333.20244   -77213.851            0   -55899.496     1253.467 
   21637    333.10483   -77185.559            0   -55877.447    1246.7192 
   21714    333.00796   -77157.293            0   -55855.379    1240.0581 
   21791      332.912   -77129.067            0   -55833.291     1233.509 
   21868    332.81714   -77100.892            0   -55811.184    1227.0914 
   21945    332.72354   -77072.777            0   -55789.057    1220.8176 
   22022    332.63129   -77044.729            0    -55766.91    1214.6936 
   22099    332.54041    -77016.75            0   -55744.744    1208.7177 
   22176    332.45085   -76988.835            0   -55722.558    1202.8846 
   22253    332.36253    -76960.98            0   -55700.353     1197.186 
   22330     332.2753   -76933.176            0   -55678.129    1191.6098 
   22407    332.18898   -76905.411            0   -55655.885    1186.1482 
   22484     332.1034   -76877.673            0   -55633.622    1180.8011 
   22561    332.01839   -76849.953            0    -55611.34    1175.5747 
   22638     331.9338   -76822.241            0   -55589.038    1170.4738 
   22715    331.84946   -76794.526            0   -55566.718    1165.4966 
   22792     331.7652   -76766.796            0   -55544.379    1160.6385 
   22869    331.68078   -76739.038            0   -55522.021    1155.8912 
   22946    331.59586   -76711.229            0   -55499.644    1151.2463 
   23023    331.51007   -76683.346            0   -55477.249    1146.6944 
   23100    331.42294   -76655.359            0   -55454.835    1142.2279 
   23177    331.33401   -76627.239            0   -55432.403    1137.8488 
   23254    331.24282   -76598.955            0   -55409.954    1133.5668 
   23331    331.14895   -76570.483            0   -55387.486    1129.3952 
   23408    331.05208   -76541.801            0       -55365    1125.3516 
   23485    330.95197   -76512.894            0   -55342.498    1121.4521 
   23562    330.84844   -76483.752            0   -55319.978    1117.7024 
   23639    330.74141   -76454.369            0   -55297.441    1114.1028 
   23716    330.63085   -76424.743            0   -55274.888    1110.6541 
   23793     330.5168   -76394.878            0   -55252.318    1107.3583 
   23870    330.39939   -76364.781            0   -55229.732    1104.2191 
   23947    330.27883   -76334.467            0    -55207.13    1101.2398 
   24024    330.15541   -76303.955            0   -55184.512    1098.4177 
   24101    330.02948   -76273.265            0   -55161.879    1095.7327 
   24178    329.90137   -76242.421            0    -55139.23    1093.1605 
   24255    329.77147   -76211.447            0   -55116.565    1090.6844 
   24332    329.64024   -76180.372            0   -55093.884    1088.2982 
   24409    329.50826   -76149.234            0   -55071.189    1086.0073 
   24486    329.37625   -76118.078            0   -55048.477    1083.8223 
   24563    329.24504   -76086.958            0   -55025.751    1081.7546 
   24640    329.11551    -76055.93            0   -55003.009    1079.8112 
   24717    328.98861   -76025.054            0   -54980.251     1077.989 
   24794    328.86519   -75994.386            0   -54957.477     1076.278 
   24871    328.74606   -75963.975            0   -54934.687    1074.6632 
   24948    328.63191   -75933.867            0    -54911.88    1073.1299 
   25025    328.52332   -75904.098            0   -54889.057    1071.6669 
   25102    328.42077   -75874.697            0   -54866.217    1070.2679 
   25179    328.32461   -75845.689            0    -54843.36    1068.9323 
   25256    328.23518   -75817.093            0   -54820.485    1067.6642 
   25333    328.15269   -75788.924            0   -54797.593    1066.4698 
   25410    328.07735   -75761.194            0   -54774.682      1065.35 
   25487    328.00924   -75733.908            0   -54751.753    1064.2991 
   25564    327.94836   -75707.066            0   -54728.805     1063.312 
   25641    327.89461   -75680.661            0   -54705.839    1062.3779 
   25718    327.84777   -75654.679            0   -54682.853    1061.4834 
   25795     327.8075   -75629.098            0   -54659.848    1060.6202 
   25872    327.77337   -75603.891            0   -54636.824     1059.786 
   25949    327.74488   -75579.024            0    -54613.78    1058.9839 
   26026    327.72148   -75554.464            0   -54590.716    1058.2209 
   26103    327.70255    -75530.17            0   -54567.633    1057.5076 
   26180    327.68748   -75506.103            0   -54544.529     1056.856 
   26257    327.67563   -75482.222            0   -54521.407    1056.2778 
   26334    327.66637   -75458.487            0   -54498.264    1055.7846 
   26411    327.65908   -75434.859            0   -54475.102    1055.3859 
   26488    327.65319     -75411.3            0   -54451.921    1055.0874 
   26565    327.64811   -75387.775            0    -54428.72    1054.8839 
   26642    327.64331   -75364.248            0   -54405.501    1054.7702 
   26719    327.63833   -75340.691            0   -54382.262    1054.7452 
   26796    327.63279   -75317.079            0   -54359.004    1054.8127 
   26873    327.62642   -75293.396            0   -54335.729    1054.9772 
   26950    327.61911   -75269.634            0   -54312.434    1055.2385 
   27027    327.61082   -75245.791            0   -54289.122    1055.5919 
   27104    327.60162   -75221.872            0   -54265.792    1056.0304 
   27181    327.59164   -75197.886            0   -54242.444     1056.544 
   27258    327.58111   -75173.847            0   -54219.078    1057.1211 
   27335     327.5703   -75149.772            0   -54195.695    1057.7489 
   27412    327.55953   -75125.682            0   -54172.294    1058.4155 
   27489    327.54919   -75101.603            0   -54148.876    1059.1136 
   27566    327.53974   -75077.563            0   -54125.441    1059.8416 
   27643    327.53173   -75053.598            0   -54101.988    1060.6028 
   27720    327.52577   -75029.746            0   -54078.517    1061.4041 
   27797    327.52255   -75006.052            0   -54055.029    1062.2522 
   27874    327.52278   -74982.561            0   -54031.524    1063.1487 
   27951    327.52719    -74959.32            0       -54008    1064.0918 
   28028    327.53648   -74936.372            0   -53984.459    1065.0774 
   28105    327.55128   -74913.759            0   -53960.899    1066.0974 
   28182    327.57215   -74891.517            0   -53937.321    1067.1413 
   28259     327.5996   -74869.675            0   -53913.724    1068.1976 
   28336    327.63401    -74848.26            0   -53890.108    1069.2565 
   28413    327.67572   -74827.292            0   -53866.472    1070.3102 
   28490      327.725   -74806.789            0   -53842.816    1071.3476 
   28567    327.78208   -74786.765            0   -53819.141    1072.3595 
   28644    327.84713    -74767.23            0   -53795.445    1073.3404 
   28721    327.92032   -74748.196            0   -53771.728    1074.2909 
   28798    328.00181   -74729.671            0   -53747.991    1075.2145 
   28875    328.09175   -74711.665            0   -53724.232    1076.1159 
   28952    328.19027   -74694.187            0   -53700.452    1077.0029 
   29029    328.29754   -74677.247            0    -53676.65    1077.8851 
   29106    328.41367   -74660.851            0   -53652.825    1078.7715 
   29183    328.53884   -74645.011            0   -53628.979    1079.6704 
   29260    328.67318   -74629.736            0   -53605.109     1080.586 
   29337    328.81684   -74615.033            0   -53581.217    1081.5153 
   29414    328.96992   -74600.909            0   -53557.301    1082.4476 
   29491    329.13248   -74587.369            0   -53533.362    1083.3685 
   29568    329.30455   -74574.413            0   -53509.399    1084.2616 
   29645    329.48609   -74562.039            0   -53485.412    1085.1113 
   29722    329.67701    -74550.24            0     -53461.4    1085.9031 
   29799    329.87713   -74539.005            0   -53437.364    1086.6198 
   29876    330.08622   -74528.319            0   -53413.303    1087.2437 
   29953    330.30397   -74518.162            0   -53389.217    1087.7612 
   30030    330.53002   -74508.511            0   -53365.106    1088.1658 
   30107    330.76393   -74499.338            0    -53340.97    1088.4625 
   30184    331.00522   -74490.611            0   -53316.808    1088.6695 
   30261    331.25342   -74482.301            0   -53292.621    1088.8131 
   30338    331.50802   -74474.374            0   -53268.408    1088.9272 
   30415    331.76853     -74466.8            0    -53244.17     1089.053 
   30492    332.03451   -74459.551            0   -53219.906    1089.2305 
   30569    332.30553   -74452.598            0   -53195.617    1089.4912 
   30646    332.58117   -74445.916            0   -53171.302     1089.853 
   30723    332.86103   -74439.478            0   -53146.962     1090.324 
   30800    333.14471   -74433.259            0   -53122.597    1090.9028 
   30877    333.43184   -74427.235            0   -53098.206    1091.5841 
   30954    333.72205   -74421.384            0   -53073.791    1092.3646 
   31031    334.01503   -74415.685            0    -53049.35    1093.2437 
   31108    334.31047   -74410.118            0   -53024.885    1094.2244 
   31185    334.60808   -74404.666            0   -53000.395    1095.3146 
   31262    334.90758    -74399.31            0   -52975.881    1096.5237 
   31339    335.20864    -74394.03            0   -52951.342    1097.8627 
   31416    335.51099   -74388.807            0   -52926.779    1099.3347 
   31493    335.81433   -74383.625            0   -52902.192    1100.9381 
   31570    336.11841   -74378.466            0   -52877.582    1102.6695 
   31647    336.42298   -74373.314            0   -52852.947    1104.5208 
   31724    336.72783   -74368.158            0    -52828.29    1106.4842 
   31801    337.03278   -74362.984            0   -52803.609    1108.5532 
   31878    337.33766   -74357.783            0   -52778.905    1110.7219 
   31955     337.6424    -74352.55            0   -52754.179    1112.9842 
   32032    337.94694   -74347.282            0    -52729.43    1115.3343 
   32109    338.25127   -74341.977            0   -52704.658     1117.766 
   32186    338.55542    -74336.64            0   -52679.865    1120.2706 
   32263    338.85947   -74331.274            0   -52655.049    1122.8379 
   32340    339.16352   -74325.885            0   -52630.211    1125.4543 
   32417    339.46767   -74320.482            0   -52605.352    1128.1029 
   32494    339.77206   -74315.073            0   -52580.471    1130.7689 
   32571    340.07683   -74309.665            0   -52555.568    1133.4419 
   32648    340.38209   -74304.268            0   -52530.644    1136.1164 
   32725    340.68793   -74298.887            0   -52505.699    1138.7886 
   32802    340.99442   -74293.526            0   -52480.732    1141.4539 
   32879    341.30156   -74288.186            0   -52455.745    1144.1079 
   32956    341.60929   -74282.862            0   -52430.736    1146.7506 
   33033    341.91751   -74277.548            0   -52405.706    1149.3853 
   33110    342.22605   -74272.234            0   -52380.656    1152.0187 
   33187    342.53472   -74266.908            0   -52355.584    1154.6591 
   33264    342.84328   -74261.554            0   -52330.492    1157.3142 
   33341    343.15151   -74256.159            0    -52305.38     1159.989 
   33418    343.45915   -74250.705            0   -52280.247    1162.6898 
   33495    343.76594   -74245.176            0   -52255.094    1165.4251 
   33572    344.07164   -74239.559            0   -52229.921    1168.2043 
   33649    344.37601   -74233.836            0   -52204.728    1171.0318 
   33726    344.67881   -74227.993            0   -52179.516    1173.9067 
   33803     344.9798   -74222.015            0   -52154.284     1176.828 
   33880    345.27875   -74215.888            0   -52129.033    1179.7968 
   33957    345.57546   -74209.598            0   -52103.763    1182.8185 
   34034    345.86972   -74203.132            0   -52078.475    1185.9034 
   34111    346.16135   -74196.481            0   -52053.168    1189.0668 
   34188    346.45019   -74189.632            0   -52027.843     1192.329 
   34265     346.7361   -74182.578            0     -52002.5    1195.7124 
   34342    347.01898   -74175.312            0   -51977.139    1199.2376 
   34419    347.29874    -74167.83            0    -51951.76    1202.9229 
   34496    347.57537    -74160.13            0   -51926.365    1206.7791 
   34573    347.84888   -74152.213            0   -51900.952    1210.8048 
   34650    348.11929   -74144.081            0   -51875.523    1214.9925 
   34727    348.38667   -74135.739            0   -51850.076    1219.3304 
   34804    348.65115   -74127.194            0   -51824.614    1223.8058 
   34881    348.91286   -74118.457            0   -51799.135    1228.4059 
   34958    349.17203   -74109.541            0    -51773.64    1233.1165 
   35035    349.42893   -74100.463            0    -51748.13    1237.9243 
   35112    349.68386   -74091.244            0   -51722.603    1242.8144 
   35189     349.9372   -74081.908            0   -51697.061    1247.7722 
   35266     350.1894   -74072.482            0   -51671.503    1252.7891 
   35343     350.4409   -74062.997            0   -51645.929    1257.8612 
   35420    350.69218   -74053.482            0    -51620.34    1262.9887 
   35497    350.94371   -74043.967            0   -51594.735    1268.1759 
   35574    351.19586   -74034.476            0   -51569.115    1273.4308 
   35651    351.44896    -74025.03            0   -51543.479    1278.7593 
   35728    351.70323   -74015.644            0   -51517.827     1284.159 
   35805    351.95883   -74006.326            0   -51492.159    1289.6164 
   35882    352.21581   -73997.082            0   -51466.476    1295.1109 
   35959    352.47423   -73987.913            0   -51440.777    1300.6174 
   36036    352.73412   -73978.822            0   -51415.061    1306.1115 
   36113    352.99556   -73969.814            0    -51389.33    1311.5717 
   36190    353.25863   -73960.896            0   -51363.583    1316.9849 
   36267    353.52345   -73952.072            0   -51337.819    1322.3521 
   36344    353.79008   -73943.349            0    -51312.04     1327.687 
   36421    354.05852   -73934.725            0   -51286.244    1333.0055 
   36498    354.32866   -73926.194            0   -51260.433    1338.3131 
   36575    354.60027   -73917.741            0   -51234.605    1343.6147 
   36652    354.87308   -73909.348            0   -51208.762    1348.9172 
   36729    355.14669   -73900.991            0   -51182.902     1354.232 
   36806    355.42067   -73892.642            0   -51157.027    1359.5754 
   36883    355.69453   -73884.268            0   -51131.135    1364.9666 
   36960    355.96772   -73875.837            0   -51105.229    1370.4256 
   37037    356.23967   -73867.311            0   -51079.306    1375.9701 
   37114    356.50983   -73858.655            0   -51053.369    1381.6144 
   37191    356.77762   -73849.833            0   -51027.416    1387.3698 
   37268    357.04253   -73840.812            0   -51001.449    1393.2443 
   37345    357.30406    -73831.56            0   -50975.468    1399.2414 
   37422    357.56176   -73822.049            0   -50949.472    1405.3606 
   37499    357.81521   -73812.252            0   -50923.463    1411.6004 
   37576    358.06403   -73802.146            0    -50897.44    1417.9593 
   37653    358.30787   -73791.708            0   -50871.404    1424.4334 
   37730    358.54643   -73780.919            0   -50845.356    1431.0123 
   37807     358.7794   -73769.762            0   -50819.295    1437.6801 
   37884    359.00656   -73758.219            0   -50793.222    1444.4213 
   37961    359.22771   -73746.281            0   -50767.137    1451.2228 
   38038    359.44271   -73733.938            0   -50741.041    1458.0742 
   38115    359.65147   -73721.185            0   -50714.934      1464.97 
   38192      359.854   -73708.023            0   -50688.816     1471.908 
   38269    360.05034   -73694.454            0   -50662.688    1478.8892 
   38346    360.24062   -73680.488            0   -50636.549    1485.9178 
   38423    360.42501   -73666.134            0   -50610.401     1493.001 
   38500    360.60373   -73651.409            0   -50584.243    1500.1478 
   38577    360.77707   -73636.329            0   -50558.075      1507.37 
   38654    360.94533   -73620.916            0   -50531.898    1514.6799 
   38731    361.10887    -73605.19            0   -50505.712    1522.0893 
   38808    361.26804   -73589.177            0   -50479.517    1529.6099 
   38885    361.42324   -73572.901            0   -50453.313    1537.2541 
   38962    361.57484   -73556.385            0     -50427.1    1545.0364 
   39039    361.72326   -73539.658            0   -50400.878    1552.9711 
   39116    361.86894   -73522.745            0   -50374.647    1561.0672 
   39193    362.01232   -73505.677            0   -50348.407    1569.3264 
   39270    362.15394   -73488.488            0   -50322.158    1577.7461 
   39347    362.29439   -73471.214            0     -50295.9    1586.3191 
   39424    362.43436     -73453.9            0   -50269.633     1595.033 
   39501    362.57462   -73436.597            0   -50243.357     1603.871 
   39578    362.71606   -73419.358            0   -50217.071    1612.8106 
   39655    362.85961   -73402.246            0   -50190.776    1621.8254 
   39732    363.00626   -73385.321            0    -50164.47    1630.8872 
   39809    363.15701   -73368.649            0   -50138.155    1639.9673 
   39886    363.31281   -73352.289            0   -50111.828    1649.0402 
   39963    363.47455   -73336.298            0   -50085.491    1658.0859 
   40040      363.643   -73320.724            0   -50059.142    1667.0888 
   40117    363.81877   -73305.607            0   -50032.782    1676.0373 
   40194     364.0023   -73290.975            0   -50006.409     1684.925 
   40271    364.19385   -73276.843            0   -49980.023    1693.7512 
   40348     364.3935   -73263.215            0   -49953.625    1702.5172 
   40425    364.60115   -73250.086            0   -49927.213    1711.2247 
   40502    364.81657    -73237.44            0   -49900.787    1719.8723 
   40579    365.03937   -73225.253            0   -49874.347    1728.4598 
   40656    365.26909   -73213.494            0   -49847.894    1736.9902 
   40733     365.5052   -73202.129            0   -49821.425    1745.4691 
   40810    365.74711   -73191.121            0   -49794.943    1753.9047 
   40887     365.9942    -73180.43            0   -49768.446    1762.3062 
   40964    366.24586   -73170.016            0   -49741.934    1770.6829 
   41041    366.50149   -73159.843            0   -49715.408    1779.0425 
   41118    366.76052   -73149.872            0   -49688.867    1787.3898 
   41195    367.02241    -73140.07            0   -49662.313    1795.7257 
   41272    367.28666   -73130.405            0   -49635.744    1804.0481 
   41349    367.55283   -73120.848            0   -49609.161    1812.3538 
   41426    367.82049   -73111.373            0   -49582.564    1820.6408 
   41503    368.08929   -73101.958            0   -49555.955    1828.9075 
   41580    368.35895   -73092.584            0   -49529.331    1837.1507 
   41657    368.62923   -73083.237            0   -49502.695    1845.3671 
   41734    368.89993   -73073.904            0   -49476.046    1853.5551 
   41811    369.17092   -73064.577            0   -49449.384    1861.7137 
   41888    369.44212   -73055.251            0    -49422.71    1869.8419 
   41965    369.71346   -73045.922            0   -49396.023    1877.9387 
   42042    369.98494    -73036.59            0   -49369.325    1886.0017 
   42119    370.25654   -73027.253            0   -49342.615    1894.0274 
   42196    370.52826   -73017.913            0   -49315.893    1902.0122 
   42273    370.80011   -73008.569            0    -49289.16     1909.953 
   42350    371.07206   -72999.221            0   -49262.416      1917.85 
   42427    371.34409   -72989.867            0    -49235.66    1925.7081 
   42504    371.61617   -72980.505            0   -49208.894    1933.5364 
   42581    371.88825   -72971.132            0   -49182.117    1941.3433 
   42658     372.1603   -72961.747            0   -49155.329    1949.1355 
   42735    372.43232    -72952.35            0    -49128.53    1956.9158 
   42812    372.70434   -72942.941            0   -49101.722    1964.6808 
   42889     372.9764   -72933.525            0   -49074.903    1972.4217 
   42966     373.2486   -72924.108            0   -49048.073     1980.129 
   43043    373.52106   -72914.698            0   -49021.234    1987.7935 
   43120    373.79396   -72905.306            0   -48994.385    1995.4079 
   43197    374.06751   -72895.945            0   -48967.526    2002.9626 
   43274    374.34191    -72886.63            0   -48940.658    2010.4472 
   43351    374.61739   -72877.374            0    -48913.78    2017.8532 
   43428    374.89418   -72868.192            0   -48886.892    2025.1742 
   43505     375.1725   -72859.097            0   -48859.994    2032.4068 
   43582    375.45256   -72850.105            0   -48833.087    2039.5485 
   43659    375.73459   -72841.229            0    -48806.17    2046.5964 
   43736    376.01883   -72832.485            0   -48779.244    2053.5495 
   43813    376.30553   -72823.889            0   -48752.308    2060.4098 
   43890    376.59497   -72815.458            0   -48725.362    2067.1811 
   43967    376.88741    -72807.21            0   -48698.407    2073.8696 
   44044    377.18313   -72799.162            0   -48671.442    2080.4814 
   44121    377.48238    -72791.33            0   -48644.468    2087.0187 
   44198    377.78537   -72783.727            0   -48617.483    2093.4802 
   44275    378.09223   -72776.362            0   -48590.489    2099.8647 
   44352    378.40309   -72769.243            0   -48563.485    2106.1716 
   44429    378.71802   -72762.374            0   -48536.471    2112.3946 
   44506    379.03709   -72755.761            0   -48509.447    2118.5209 
   44583    379.36034   -72749.405            0   -48482.413    2124.5327 
   44660    379.68779   -72743.307            0   -48455.369    2130.4097 
   44737    380.01941   -72737.466            0   -48428.315    2136.1368 
   44814    380.35515   -72731.879            0   -48401.251    2141.7061 
   44891    380.69493    -72726.54            0   -48374.177    2147.1174 
   44968     381.0386    -72721.44            0   -48347.093    2152.3738 
   45045    381.38597   -72716.567            0   -48319.999    2157.4855 
   45122    381.73677   -72711.904            0   -48292.896    2162.4731 
   45199     382.0907   -72707.431            0   -48265.783    2167.3642 
   45276    382.44741   -72703.126            0    -48238.66    2172.1865 
   45353    382.80653   -72698.966            0   -48211.528    2176.9603 
   45430     383.1677   -72694.928            0   -48184.387    2181.6999 
   45507    383.53053   -72690.988            0   -48157.236    2186.4146 
   45584    383.89467   -72687.122            0   -48130.077    2191.1085 
   45661    384.25976   -72683.308            0    -48102.91     2195.782 
   45738    384.62543   -72679.524            0   -48075.734    2200.4338 
   45815    384.99136   -72675.748            0    -48048.55    2205.0597 
   45892    385.35724   -72671.961            0   -48021.358    2209.6535 
   45969    385.72282   -72668.147            0   -47994.159     2214.209 
   46046    386.08789   -72664.294            0   -47966.953    2218.7225 
   46123    386.45228    -72660.39            0    -47939.74      2223.19 
   46200    386.81589    -72656.43            0    -47912.52    2227.6047 
   46277    387.17865   -72652.409            0   -47885.294    2231.9636 
   46354    387.54054   -72648.326            0   -47858.062    2236.2716 
   46431     387.9016   -72644.185            0   -47830.824    2240.5401 
   46508    388.26193   -72639.991            0   -47803.581    2244.7848 
   46585    388.62168   -72635.755            0   -47776.332    2249.0248 
   46662    388.98108   -72631.491            0   -47749.078    2253.2786 
   46739    389.34035   -72627.215            0    -47721.82    2257.5605 
   46816    389.69975   -72622.941            0   -47694.557    2261.8801 
   46893    390.05952   -72618.687            0   -47667.289    2266.2407 
   46970    390.41988   -72614.467            0   -47640.017    2270.6365 
   47047    390.78104   -72610.293            0    -47612.74    2275.0498 
   47124    391.14315   -72606.176            0   -47585.459    2279.4576 
   47201    391.50635   -72602.125            0   -47558.174     2283.837 
   47278    391.87077   -72598.147            0   -47530.886    2288.1688 
   47355    392.23653   -72594.251            0   -47503.593    2292.4387 
   47432    392.60375   -72590.445            0   -47476.296    2296.6389 
   47509    392.97257   -72586.738            0   -47448.996    2300.7684 
   47586    393.34313   -72583.138            0   -47421.692     2304.831 
   47663    393.71559   -72579.656            0   -47394.385    2308.8314 
   47740    394.09011   -72576.303            0   -47367.074    2312.7718 
   47817    394.46689    -72573.09            0    -47339.76    2316.6638 
   47894    394.84611    -72570.03            0   -47312.442    2320.5329 
   47971    395.22785   -72567.129            0   -47285.121    2324.4133 
   48048    395.61212   -72564.386            0   -47257.797    2328.3386 
   48125    395.99874   -72561.791            0    -47230.47    2332.3373 
   48202    396.38742   -72559.324            0    -47203.14    2336.4284 
   48279    396.77774   -72556.959            0   -47175.807     2340.612 
   48356    397.16925   -72554.668            0   -47148.472    2344.8662 
   48433    397.56156   -72552.425            0   -47121.134    2349.1562 
   48510    397.95439   -72550.214            0   -47093.794    2353.4438 
   48587    398.34759   -72548.024            0   -47066.452    2357.7006 
   48664    398.74106    -72545.85            0   -47039.108    2361.9186 
   48741    399.13471   -72543.685            0   -47011.763    2366.1117 
   48818    399.52834   -72541.519            0   -46984.417    2370.2981 
   48895    399.92173   -72539.336            0    -46957.07    2374.4897 
   48972    400.31463   -72537.122            0   -46929.722    2378.7019 
   49049    400.70672   -72534.855            0   -46902.373    2382.9456 
   49126    401.09767   -72532.514            0   -46875.025    2387.2197 
   49203    401.48717   -72530.082            0   -46847.677    2391.5162 
   49280      401.875   -72527.543            0   -46820.329    2395.8291 
   49357      402.261   -72524.888            0   -46792.982    2400.1584 
   49434    402.64508   -72522.111            0   -46765.636    2404.5121 
   49511    403.02715   -72519.207            0   -46738.292    2408.9028 
   49588    403.40711    -72516.17            0   -46710.949    2413.3418 
   49665     403.7849   -72512.996            0   -46683.609    2417.8402 
   49742    404.16043   -72509.679            0   -46656.271    2422.4065 
   49819    404.53359   -72506.214            0   -46628.935    2427.0441 
   49896    404.90427   -72502.593            0   -46601.602    2431.7521 
   49973    405.27232   -72498.806            0   -46574.272    2436.5231 
   50050    405.63753   -72494.842            0   -46546.946    2441.3403 
   50127    405.99968   -72490.685            0   -46519.623    2446.1852 
   50204    406.35852   -72486.321            0   -46492.305    2451.0373 
   50281     406.7138   -72481.733            0    -46464.99    2455.8763 
   50358    407.06529   -72476.907            0    -46437.68    2460.6866 
   50435     407.4128   -72471.832            0   -46410.375    2465.4596 
   50512     407.7562   -72466.498            0   -46383.075    2470.1925 
   50589     408.0954   -72460.902            0    -46355.78     2474.886 
   50666    408.43035   -72455.039            0   -46328.491    2479.5403 
   50743    408.76101   -72448.907            0   -46301.208    2484.1614 
   50820    409.08732   -72442.503            0    -46273.93    2488.7639 
   50897    409.40923   -72435.824            0   -46246.659    2493.3662 
   50974    409.72671   -72428.868            0   -46219.395     2497.981 
   51051    410.03974   -72421.634            0   -46192.137     2502.621 
   51128    410.34834   -72414.124            0   -46164.886     2507.302 
   51205    410.65255    -72406.34            0   -46137.642    2512.0383 
   51282    410.95244   -72398.287            0   -46110.405    2516.8404 
   51359     411.2481    -72389.97            0   -46083.176    2521.7141 
   51436    411.53964   -72381.398            0   -46055.954    2526.6627 
   51513    411.82719   -72372.577            0    -46028.74    2531.6874 
   51590    412.11091    -72363.52            0   -46001.534    2536.7845 
   51667    412.39101   -72354.239            0   -45974.335    2541.9446 
   51744    412.66777   -72344.752            0   -45947.144     2547.156 
   51821    412.94157   -72335.084            0   -45919.961    2552.4053 
   51898    413.21293   -72325.267            0   -45892.786    2557.6803 
   51975     413.4825   -72315.343            0   -45865.619     2562.973 
   52052     413.7511   -72305.365            0   -45838.459    2568.2791 
   52129    414.01966   -72295.393            0   -45811.307    2573.5928 
   52206    414.28925   -72285.494            0   -45784.163    2578.9054 
   52283    414.56099   -72275.739            0   -45757.026    2584.2088 
   52360    414.83603   -72266.203            0   -45729.896    2589.4954 
   52437     415.1155   -72256.957            0   -45702.773    2594.7588 
   52514    415.40045   -72248.068            0   -45675.656    2599.9927 
   52591    415.69176   -72239.592            0   -45648.545    2605.1937 
   52668    415.99013   -72231.572            0    -45621.44    2610.3637 
   52745    416.29593   -72224.034            0    -45594.34    2615.5086 
   52822    416.60926   -72216.983            0   -45567.245    2620.6307 
   52899    416.92984   -72210.399            0   -45540.155    2625.7272 
   52976    417.25704   -72204.244            0   -45513.069    2630.7902 
   53053    417.58996    -72198.46            0   -45485.989    2635.8125 
   53130    417.92748   -72192.974            0   -45458.912    2640.7903 
   53207    418.26832   -72187.705            0    -45431.84    2645.7207 
   53284    418.61114   -72182.568            0   -45404.773    2650.6036 
   53361    418.95465   -72177.479            0   -45377.711    2655.4424 
   53438    419.29762   -72172.362            0   -45350.655    2660.2492 
   53515      419.639   -72167.149            0   -45323.604    2665.0383 
   53592    419.97791   -72161.784            0    -45296.56    2669.8173 
   53669     420.3136    -72156.22            0   -45269.522    2674.5859 
   53746    420.64544   -72150.417            0   -45242.491    2679.3404 
   53823    420.97291   -72144.341            0   -45215.469    2684.0776 
   53900    421.29559   -72137.968            0   -45188.454    2688.7983 
   53977     421.6132   -72131.279            0   -45161.449     2693.512 
   54054    421.92557   -72124.264            0   -45134.452    2698.2324 
   54131    422.23267   -72116.922            0   -45107.465    2702.9724 
   54208    422.53457   -72109.258            0   -45080.488    2707.7379 
   54285    422.83142    -72101.28            0   -45053.522    2712.5269 
   54362    423.12335   -72092.999            0   -45026.566     2717.334 
   54439    423.41052   -72084.424            0   -44999.622    2722.1557 
   54516    423.69308   -72075.565            0   -44972.688    2726.9945 
   54593    423.97116   -72066.432            0   -44945.766    2731.8574 
   54670    424.24493   -72057.034            0   -44918.856    2736.7538 
   54747    424.51455   -72047.383            0   -44891.958    2741.6952 
   54824    424.78017   -72037.488            0   -44865.072    2746.6938 
   54901    425.04192   -72027.357            0   -44838.198     2751.758 
   54978     425.2999   -72016.998            0   -44811.336    2756.8927 
   55055    425.55419   -72006.415            0   -44784.487    2762.0898 
   55132    425.80487   -71995.614            0    -44757.65    2767.3316 
   55209    426.05205   -71984.602            0   -44730.826    2772.5972 
   55286    426.29589   -71973.388            0   -44704.014    2777.8669 
   55363    426.53657   -71961.985            0   -44677.215    2783.1246 
   55440    426.77435   -71950.409            0   -44650.429    2788.3583 
   55517    427.00948   -71938.676            0   -44623.655    2793.5639 
   55594     427.2422   -71926.802            0   -44596.894    2798.7403 
   55671    427.47273   -71914.799            0   -44570.146    2803.8878 
   55748    427.70124   -71902.681            0    -44543.41    2809.0042 
   55825    427.92794    -71890.46            0   -44516.686     2814.084 
   55902    428.15305   -71878.149            0   -44489.976    2819.1215 
   55979    428.37684   -71865.765            0   -44463.277     2824.109 
   56056    428.59963   -71853.331            0   -44436.591    2829.0374 
   56133    428.82184   -71840.871            0   -44409.917    2833.8999 
   56210    429.04393   -71828.416            0   -44383.255    2838.6913 
   56287    429.26633   -71815.993            0   -44356.606    2843.4028 
   56364    429.48945   -71803.627            0   -44329.968    2848.0377 
   56441    429.71367   -71791.345            0   -44303.341    2852.6188 
   56518    429.93937   -71779.167            0   -44276.727    2857.1798 
   56595    430.16684   -71767.115            0   -44250.123    2861.7438 
   56672    430.39639   -71755.206            0   -44223.531    2866.3176 
   56749    430.62825   -71743.457            0    -44196.95    2870.8976 
   56826    430.86258   -71731.877            0    -44170.38    2875.4747 
   56903    431.09948   -71720.472            0   -44143.821    2880.0372 
   56980    431.33896   -71709.242            0   -44117.272    2884.5749 
   57057    431.58098   -71698.186            0   -44090.734    2889.0782 
   57134    431.82546   -71687.298            0   -44064.207    2893.5404 
   57211    432.07233   -71676.573            0   -44037.691    2897.9641 
   57288    432.32148   -71666.004            0   -44011.184    2902.3585 
   57365    432.57276   -71655.582            0   -43984.689    2906.7229 
   57442    432.82596   -71645.294            0   -43958.204    2911.0545 
   57519    433.08084   -71635.124            0   -43931.729    2915.3588 
   57596    433.33714   -71625.056            0   -43905.266     2919.645 
   57673    433.59459   -71615.071            0   -43878.813    2923.9217 
   57750    433.85293   -71605.155            0   -43852.371    2928.1898 
   57827    434.11197   -71595.295            0    -43825.94    2932.4404 
   57904    434.37163   -71585.485            0   -43799.521    2936.6601 
   57981    434.63193   -71575.728            0   -43773.113    2940.8318 
   58058    434.89304   -71566.034            0   -43746.716     2944.939 
   58135    435.15526   -71556.423            0   -43720.331    2948.9685 
   58212    435.41901   -71546.921            0   -43693.958    2952.9106 
   58289    435.68481   -71537.563            0   -43667.597    2956.7606 
   58366    435.95327   -71528.386            0   -43641.248    2960.5213 
   58443    436.22502   -71519.433            0   -43614.911    2964.2009 
   58520    436.50073   -71510.745            0   -43588.585    2967.8097 
   58597    436.78103   -71502.361            0   -43562.273    2971.3576 
   58674    437.06648    -71494.32            0   -43535.972    2974.8516 
   58751    437.35761   -71486.655            0   -43509.683    2978.2952 
   58828    437.65484   -71479.391            0   -43483.406    2981.6848 
   58905     437.9585   -71472.551            0   -43457.141    2985.0114 
   58982    438.26881   -71466.148            0   -43430.889    2988.2696 
   59059    438.58586   -71460.189            0   -43404.648    2991.4569 
   59136    438.90958   -71454.669            0    -43378.42    2994.5718 
   59213    439.23976   -71449.574            0   -43352.204    2997.6174 
   59290    439.57597   -71444.877            0   -43326.001    3000.6063 
   59367    439.91762   -71440.541            0    -43299.81    3003.5506 
   59444    440.26403   -71436.523            0   -43273.632    3006.4536 
   59521    440.61445   -71432.774            0   -43247.468    3009.3166 
   59598    440.96811   -71429.246            0   -43221.317    3012.1372 
   59675    441.32427   -71425.892            0   -43195.181    3014.9126 
   59752    441.68224    -71422.67            0   -43169.059    3017.6404 
   59829    442.04141   -71419.538            0   -43142.952    3020.3209 
   59906    442.40122   -71416.463            0   -43116.861    3022.9551 
   59983     442.7612   -71413.415            0   -43090.786    3025.5454 
   60060    443.12093   -71410.368            0   -43064.728    3028.0957 
   60137    443.48008   -71407.302            0   -43038.687    3030.6091 
   60214    443.83838   -71404.199            0   -43012.664    3033.0845 
   60291    444.19563   -71401.047            0   -42986.659    3035.5168 
   60368    444.55171   -71397.839            0   -42960.674    3037.9045 
   60445    444.90658   -71394.573            0   -42934.707     3040.249 
   60522    445.26025   -71391.251            0   -42908.761    3042.5573 
   60599    445.61276   -71387.875            0   -42882.836    3044.8388 
   60676    445.96414   -71384.447            0   -42856.931    3047.1057 
   60753     446.3144    -71380.97            0   -42831.048    3049.3736 
   60830     446.6635    -71377.44            0   -42805.187    3051.6618 
   60907    447.01135   -71373.852            0   -42779.348    3053.9913 
   60984    447.35781   -71370.198            0   -42753.532    3056.3742 
   61061    447.70266   -71366.465            0   -42727.739    3058.8163 
   61138    448.04574   -71362.642            0   -42701.969    3061.3221 
   61215    448.38691    -71358.72            0   -42676.224    3063.8958 
   61292     448.7261   -71354.697            0   -42650.503    3066.5392 
   61369    449.06335   -71350.573            0   -42624.806    3069.2524 
   61446    449.39871   -71346.355            0   -42599.135    3072.0338 
   61523    449.73231   -71342.049            0    -42573.49    3074.8794 
   61600    450.06429   -71337.665            0    -42547.87    3077.7655 
   61677    450.39494   -71333.222            0   -42522.276     3080.647 
   61754    450.72467   -71328.747            0   -42496.709    3083.4966 
   61831    451.05386   -71324.264            0   -42471.168    3086.3241 
   61908    451.38268   -71319.784            0   -42445.654    3089.1736 
   61985    451.71094   -71315.296            0   -42420.167    3092.1013 
   62062    452.03816   -71310.768            0   -42394.708    3095.1395 
   62139    452.36365   -71306.157            0   -42369.276    3098.2809 
   62216    452.68682   -71301.426            0   -42343.873    3101.4777 
   62293    453.00738   -71296.556            0   -42318.497    3104.6605 
   62370    453.32547   -71291.558            0    -42293.15     3107.764 
   62447    453.64158   -71286.461            0   -42267.833    3110.7606 
   62524    453.95625   -71281.301            0   -42242.544    3113.6767 
   62601    454.26985   -71276.101            0   -42217.284    3116.5439 
   62678    454.58267   -71270.882            0   -42192.054    3119.3668 
   62755    454.89497   -71265.659            0   -42166.854    3122.1524 
   62832    455.20693   -71260.444            0   -42141.684     3124.913 
   62909    455.51863   -71255.243            0   -42116.543    3127.6613 
   62986    455.83006   -71250.054            0   -42091.433    3130.4027 
   63063    456.14115   -71244.874            0   -42066.354    3133.1343 
   63140    456.45185     -71239.7            0   -42041.304    3135.8558 
   63217    456.76208   -71234.527            0   -42016.286    3138.5781 
   63294    457.07173   -71229.346            0   -41991.298    3141.3256 
   63371    457.38054   -71224.144            0   -41966.342    3144.1226 
   63448    457.68821     -71218.9            0   -41941.416    3146.9862 
   63525    457.99438   -71213.591            0   -41916.523     3149.931 
   63602    458.29859   -71208.189            0   -41891.661    3152.9663 
   63679    458.60033   -71202.661            0   -41866.831    3156.0972 
   63756    458.89903   -71196.971            0   -41842.034     3159.325 
   63833    459.19405   -71191.078            0   -41817.269    3162.6504 
   63910    459.48468   -71184.938            0   -41792.537    3166.0718 
   63987     459.7702   -71178.503            0   -41767.838    3169.5836 
   64064    460.04985   -71171.726            0   -41743.173    3173.1827 
   64141    460.32286   -71164.559            0   -41718.542    3176.8697 
   64218    460.58852   -71156.956            0   -41693.945    3180.6537 
   64295    460.84614   -71148.874            0   -41669.383    3184.5525 
   64372    461.09512   -71140.274            0   -41644.856    3188.5827 
   64449    461.33495   -71131.123            0   -41620.364    3192.7522 
   64526    461.56524   -71121.398            0   -41595.908    3197.0594 
   64603    461.78576   -71111.084            0   -41571.487    3201.4962 
   64680    461.99649   -71100.179            0   -41547.103     3206.052 
   64757    462.19762   -71088.697            0   -41522.755    3210.7165 
   64834    462.38957   -71076.664            0   -41498.443    3215.4814 
   64911    462.57308   -71064.127            0   -41474.167    3220.3414 
   64988    462.74917   -71051.151            0   -41449.928    3225.2937 
   65065    462.91925   -71037.828            0   -41425.724    3230.3299 
   65142    463.08512   -71024.271            0   -41401.557    3235.4341 
   65219    463.24894   -71010.618            0   -41377.425    3240.5873 
   65296    463.41313   -70997.024            0   -41353.327    3245.7708 
   65373    463.58023    -70983.65            0   -41329.265    3250.9662 
   65450    463.75268   -70970.652            0   -41305.235     3256.151 
   65527    463.93263   -70958.167            0   -41281.239    3261.3039 
   65604    464.12173   -70946.299            0   -41257.276    3266.4079 
   65681    464.32099   -70935.114            0   -41233.343    3271.4476 
   65758     464.5308   -70924.634            0   -41209.442    3276.4093 
   65835     464.7509   -70914.842            0   -41185.571    3281.2788 
   65912     464.9805   -70905.688            0    -41161.73    3286.0385 
   65989    465.21848     -70897.1            0   -41137.918    3290.6659 
   66066    465.46357   -70888.995            0   -41114.136    3295.1371 
   66143    465.71446   -70881.291            0   -41090.383    3299.4274 
   66220    465.96998   -70873.912            0   -41066.659    3303.5182 
   66297     466.2291   -70866.793            0   -41042.964    3307.4037 
   66374    466.49099    -70859.88            0   -41019.299    3311.0937 
   66451    466.75495    -70853.13            0   -40995.664    3314.6058 
   66528    467.02033     -70846.5            0   -40972.058    3317.9699 
   66605    467.28653   -70839.954            0   -40948.483    3321.2156 
   66682    467.55301   -70833.455            0   -40924.938     3324.368 
   66759    467.81928   -70826.975            0   -40901.425    3327.4537 
   66836    468.08499   -70820.489            0   -40877.943    3330.4994 
   66913    468.34986   -70813.982            0   -40854.492     3333.532 
   66990    468.61379   -70807.447            0   -40831.074    3336.5762 
   67067     468.8768   -70800.885            0   -40807.688    3339.6519 
   67144    469.13905   -70794.309            0   -40784.335    3342.7738 
   67221    469.40082   -70787.734            0   -40761.016      3345.95 
   67298    469.66247   -70781.185            0    -40737.73    3349.1818 
   67375    469.92441   -70774.688            0   -40714.478    3352.4664 
   67452    470.18704   -70768.271            0    -40691.26    3355.7959 
   67529    470.45077   -70761.958            0   -40668.076    3359.1545 
   67606    470.71591    -70755.77            0   -40644.928    3362.5166 
   67683    470.98278   -70749.727            0   -40621.814    3365.8369 
   67760    471.25171   -70743.851            0   -40598.735    3369.0818 
   67837    471.52297    -70738.16            0   -40575.692    3372.2463 
   67914    471.79665    -70732.66            0   -40552.685    3375.3537 
   67991    472.07253   -70727.336            0   -40529.714    3378.4451 
   68068    472.35008   -70722.155            0   -40506.778    3381.5658 
   68145    472.62844   -70717.063            0    -40483.88    3384.7472 
   68222     472.9066   -70711.995            0   -40461.018    3387.9928 
   68299    473.18354   -70706.886            0   -40438.194    3391.2784 
   68376    473.45832   -70701.677            0   -40415.408    3394.5622 
   68453    473.73028   -70696.327            0   -40392.661    3397.7937 
   68530    473.99903   -70690.809            0   -40369.952    3400.9434 
   68607    474.26432    -70685.11            0   -40347.283    3404.0251 
   68684    474.52588   -70679.212            0   -40324.653    3407.0977 
   68761    474.78319   -70673.083            0   -40302.064     3410.221 
   68838    475.03553   -70666.676            0   -40279.516    3413.4221 
   68915    475.28203   -70659.938            0   -40257.009    3416.7205 
   68992    475.52192   -70652.817            0   -40234.544    3420.1208 
   69069    475.75465   -70645.282            0   -40212.121    3423.6088 
   69146    475.98003   -70637.319            0   -40189.741    3427.1572 
   69223    476.19812   -70628.932            0   -40167.403    3430.7389 
   69300    476.40907   -70620.133            0   -40145.109     3434.337 
   69377    476.61301   -70610.928            0   -40122.859    3437.9546 
   69454     476.8099   -70601.316            0   -40100.653    3441.5938 
   69531    476.99975   -70591.298            0    -40078.49    3445.2483 
   69608    477.18262   -70580.877            0   -40056.372     3448.915 
   69685    477.35868   -70570.066            0   -40034.298    3452.5914 
   69762    477.52825   -70558.882            0   -40012.268    3456.2763 
   69839    477.69175   -70547.356            0   -39990.283    3459.9701 
   69916    477.84976   -70535.523            0   -39968.342    3463.6735 
   69993    478.00296   -70523.426            0   -39946.445    3467.3829 
   70070    478.15208   -70511.112            0   -39924.592    3471.0935 
   70147    478.29787   -70498.629            0   -39902.783    3474.8073 
   70224    478.44111   -70486.026            0   -39881.017    3478.5267 
   70301    478.58263   -70473.357            0   -39859.295    3482.2492 
   70378    478.72336    -70460.68            0   -39837.616    3485.9689 
   70455    478.86438   -70448.064            0   -39815.979    3489.6783 
   70532    479.00689   -70435.586            0   -39794.385    3493.3708 
   70609    479.15215   -70423.326            0   -39772.833    3497.0426 
   70686    479.30144   -70411.364            0   -39751.322    3500.6899 
   70763    479.45596   -70399.779            0   -39729.852    3504.3038 
   70840    479.61684   -70388.641            0   -39708.423    3507.8686 
   70917    479.78517   -70378.019            0   -39687.033    3511.3653 
   70994    479.96196   -70367.979            0   -39665.684    3514.7759 
   71071    480.14812   -70358.577            0   -39644.374    3518.0856 
   71148    480.34444   -70349.864            0   -39623.102    3521.2828 
   71225    480.55154   -70341.879            0    -39601.87    3524.3606 
   71302    480.76983   -70334.649            0   -39580.676    3527.3129 
   71379     480.9995   -70328.185            0    -39559.52    3530.1333 
   71456     481.2405   -70322.484            0   -39538.403    3532.8171 
   71533    481.49257   -70317.529            0   -39517.324    3535.3625 
   71610    481.75522    -70313.29            0   -39496.283    3537.7705 
   71687    482.02778   -70309.723            0   -39475.281    3540.0435 
   71764     482.3094   -70306.774            0   -39454.318    3542.1846 
   71841    482.59907    -70304.38            0   -39433.394    3544.1954 
   71918    482.89568    -70302.47            0    -39412.51    3546.0865 
   71995    483.19808    -70300.97            0   -39391.667     3547.883 
   72072    483.50513   -70299.809            0   -39370.864    3549.6194 
   72149    483.81575   -70298.919            0   -39350.104    3551.3278 
   72226      484.129   -70298.239            0   -39329.386    3553.0366 
   72303      484.444   -70297.715            0   -39308.712     3554.772 
   72380    484.75996   -70297.297            0   -39288.083     3556.557 
   72457    485.07611   -70296.936            0   -39267.498    3558.4112 
   72534    485.39163   -70296.582            0   -39246.961    3560.3478 
   72611    485.70574   -70296.184            0    -39226.47    3562.3686 
   72688    486.01766   -70295.695            0   -39206.028    3564.4583 
   72765    486.32676   -70295.075            0   -39185.635    3566.5859 
   72842    486.63256   -70294.293            0   -39165.292    3568.7081 
   72919    486.93473   -70293.332            0   -39145.001    3570.7818 
   72996    487.23318   -70292.183            0   -39124.762    3572.7749 
   73073    487.52789   -70290.849            0   -39104.576    3574.6728 
   73150    487.81897   -70289.337            0   -39084.443    3576.4743 
   73227    488.10658   -70287.657            0   -39064.366    3578.1818 
   73304    488.39093   -70285.824            0   -39044.344    3579.7928 
   73381    488.67238   -70283.863            0   -39024.378    3581.2978 
   73458    488.95136     -70281.8            0    -39004.47    3582.6872 
   73535    489.22831   -70279.665            0   -38984.619      3583.96 
   73612    489.50358   -70277.481            0   -38964.826      3585.12 
   73689    489.77743   -70275.265            0   -38945.092    3586.1643 
   73766    490.05005    -70273.03            0   -38925.418     3587.093 
   73843    490.32154   -70270.783            0   -38905.804    3587.9122 
   73920    490.59189   -70268.523            0   -38886.251    3588.6325 
   73997      490.861   -70266.245            0   -38866.759    3589.2697 
   74074    491.12868   -70263.938            0   -38847.329    3589.8394 
   74151    491.39469   -70261.587            0   -38827.961    3590.3534 
   74228     491.6587    -70259.17            0   -38808.656    3590.8164 
   74305    491.92028   -70256.661            0   -38789.415    3591.2325 
   74382    492.17894    -70254.03            0   -38770.237     3591.613 
   74459    492.43417   -70251.244            0   -38751.125    3591.9785 
   74536    492.68551   -70248.275            0   -38732.078    3592.3554 
   74613    492.93253   -70245.095            0   -38713.096    3592.7739 
   74690    493.17488   -70241.682            0   -38694.181    3593.2585 
   74767     493.4122   -70238.015            0   -38675.333     3593.816 
   74844    493.64423   -70234.077            0   -38656.552    3594.4403 
   74921    493.87081   -70229.858            0   -38637.839    3595.1277 
   74998    494.09179   -70225.349            0   -38619.195    3595.8854 
   75075    494.30707   -70220.545            0   -38600.619    3596.7329 
   75152    494.51652   -70215.436            0   -38582.113    3597.6948 
   75229    494.71988   -70210.008            0   -38563.676    3598.7917 
   75306    494.91693   -70204.246            0   -38545.309    3600.0371 
   75383    495.10747   -70198.137            0   -38527.012    3601.4234 
   75460    495.29152   -70191.684            0   -38508.786    3602.9263 
   75537    495.46934   -70184.903            0    -38490.63    3604.5213 
   75614    495.64141   -70177.826            0   -38472.545    3606.1903 
   75691    495.80838   -70170.493            0   -38454.531    3607.9233 
   75768    495.97094   -70162.949            0   -38436.589    3609.7183 
   75845    496.12976   -70155.237            0   -38418.717    3611.5717 
   75922    496.28556   -70147.403            0   -38400.917    3613.4749 
   75999    496.43914   -70139.497            0   -38383.187    3615.4248 
   76076     496.5914   -70131.579            0   -38365.529    3617.4206 
   76153    496.74328   -70123.706            0   -38347.941    3619.4642 
   76230    496.89575   -70115.943            0   -38330.424    3621.5588 
   76307    497.04975   -70108.348            0   -38312.978     3623.706 
   76384    497.20615   -70100.976            0   -38295.602    3625.9036 
   76461    497.36569   -70093.876            0   -38278.296    3628.1475 
   76538    497.52902   -70087.088            0   -38261.061    3630.4328 
   76615    497.69664   -70080.645            0   -38243.895    3632.7527 
   76692    497.86891   -70074.569            0   -38226.799    3635.0989 
   76769    498.04597    -70068.87            0   -38209.774    3637.4617 
   76846    498.22774   -70063.541            0   -38192.818    3639.8287 
   76923    498.41384    -70058.56            0   -38175.932    3642.1828 
   77000    498.60361   -70053.884            0   -38159.116    3644.5057 
   77077    498.79621   -70049.458            0    -38142.37    3646.7794 
   77154    498.99059   -70045.217            0   -38125.695    3648.9833 
   77231    499.18566   -70041.091            0   -38109.091    3651.0982 
   77308    499.38031   -70037.009            0   -38092.558    3653.1126 
   77385    499.57346   -70032.903            0   -38076.096    3655.0227 
   77462    499.76413    -70028.71            0   -38059.707    3656.8317 
   77539    499.95145   -70024.376            0    -38043.39     3658.551 
   77616    500.13469   -70019.853            0   -38027.145    3660.1995 
   77693    500.31327   -70015.105            0   -38010.974    3661.7979 
   77770    500.48679   -70010.107            0   -37994.877    3663.3677 
   77847    500.65504   -70004.847            0   -37978.853    3664.9327 
   77924    500.81798   -69999.321            0   -37962.905    3666.5131 
   78001     500.9758   -69993.543            0   -37947.031    3668.1183 
   78078    501.12885   -69987.534            0   -37931.232    3669.7512 
   78155    501.27765   -69981.329            0   -37915.508    3671.4083 
   78232    501.42285   -69974.969            0   -37899.861    3673.0842 
   78309    501.56515   -69968.501            0   -37884.289    3674.7731 
   78386    501.70531    -69961.97            0   -37868.792    3676.4727 
   78463    501.84404   -69955.424            0   -37853.372    3678.1829 
   78540    501.98206   -69948.909            0   -37838.028    3679.9042 
   78617    502.12004   -69942.468            0   -37822.761    3681.6412 
   78694     502.2586   -69936.139            0   -37807.569     3683.402 
   78771    502.39823   -69929.956            0   -37792.454    3685.1964 
   78848    502.53931   -69923.942            0   -37777.415    3687.0311 
   78925    502.68202   -69918.108            0   -37762.452    3688.9051 
   79002    502.82636   -69912.456            0   -37747.567    3690.8229 
   79079    502.97218   -69906.974            0   -37732.757    3692.7928 
   79156    503.11919   -69901.646            0   -37718.025    3694.8129 
   79233    503.26708    -69896.45            0   -37703.369    3696.8734 
   79310    503.41549   -69891.365            0   -37688.791    3698.9598 
   79387    503.56401   -69886.366            0    -37674.29    3701.0539 
   79464    503.71221   -69881.422            0   -37659.867    3703.1378 
   79541    503.85957   -69876.503            0   -37645.522    3705.1984 
   79618    504.00547   -69871.569            0   -37631.255    3707.2278 
   79695    504.14925   -69866.578            0   -37617.066    3709.2254 
   79772    504.29019   -69861.484            0   -37602.956    3711.1956 
   79849    504.42764   -69856.246            0   -37588.926    3713.1549 
   79926    504.56105   -69850.829            0   -37574.975    3715.1373 
   80003    504.68992   -69845.201            0   -37561.104    3717.1872 
   80080    504.81369   -69839.327            0   -37547.312    3719.3579 
   80157    504.93171   -69833.166            0   -37533.601    3721.6917 
   80234    505.04316   -69826.665            0   -37519.971    3724.2018 
   80311    505.14727   -69819.775            0   -37506.422    3726.8616 
   80388    505.24352   -69812.463            0   -37492.953    3729.6137 
   80465    505.33187   -69804.727            0   -37479.566    3732.3986 
   80542    505.41266    -69796.59            0    -37466.26    3735.1893 
   80619    505.48643   -69788.084            0   -37453.035         3738 
   80696    505.55364    -69779.24            0   -37439.892    3740.8458 
   80773    505.61474   -69770.086            0    -37426.83    3743.7247 
   80850    505.67018   -69760.652            0   -37413.849    3746.6346 
   80927    505.72045   -69750.967            0   -37400.948    3749.5673 
   81004    505.76599   -69741.061            0   -37388.129    3752.5145 
   81081    505.80723    -69730.96            0    -37375.39    3755.4702 
[...]
  181566    504.22425   -68544.298            0   -36289.988    3594.1008 
  181643    504.26071   -68541.904            0   -36285.262    3595.3864 
  181720     504.2948   -68539.391            0   -36280.569    3596.7078 
  181797    504.32647   -68536.759            0   -36275.911    3598.0634 
  181874    504.35574   -68534.008            0   -36271.287    3599.4381 
  181951    504.38265    -68531.14            0   -36266.698    3600.8161 
  182028    504.40731   -68528.163            0   -36262.144    3602.1873 
  182105    504.42984   -68525.085            0   -36257.625    3603.5492 
  182182    504.45031   -68521.911            0   -36253.141    3604.9049 
  182259    504.46876   -68518.643            0   -36248.692    3606.2624 
  182336    504.48514   -68515.277            0   -36244.279    3607.6298 
  182413    504.49931   -68511.806            0   -36239.902    3609.0107 
  182490    504.51109   -68508.218            0    -36235.56    3610.4007 
  182567    504.52029     -68504.5            0   -36231.254    3611.7823 
  182644    504.52678   -68500.645            0   -36226.983     3613.125 
  182721    504.53054   -68496.651            0   -36222.749    3614.3905 
  182798    504.53168   -68492.525            0    -36218.55    3615.5377 
  182875    504.53045   -68488.284            0   -36214.388    3616.5318 
  182952     504.5272   -68483.949            0   -36210.261     3617.358 
  183029     504.5223   -68479.545            0    -36206.17    3618.0236 
  183106    504.51607   -68475.091            0   -36202.114     3618.554 
  183183    504.50874   -68470.602            0   -36198.095    3618.9814 
  183260    504.50049    -68466.09            0   -36194.111    3619.3216 
  183337     504.4915   -68461.567            0   -36190.162    3619.5868 
  183414    504.48196   -68457.043            0   -36186.249     3619.786 
  183491    504.47205   -68452.531            0   -36182.371    3619.9273 
  183568    504.46196   -68448.043            0   -36178.528    3620.0198 
  183645     504.4519   -68443.592            0    -36174.72    3620.0739 
  183722    504.44209   -68439.192            0   -36170.947     3620.104 
  183799    504.43276   -68434.857            0   -36167.209    3620.1288 
  183876    504.42413   -68430.602            0   -36163.506    3620.1723 
  183953    504.41642    -68426.44            0   -36159.838    3620.2611 
  184030    504.40979   -68422.382            0   -36156.204    3620.4213 
  184107    504.40436   -68418.435            0   -36152.604    3620.6773 
  184184    504.40023   -68414.606            0   -36149.039    3621.0478 
  184261     504.3974   -68410.894            0   -36145.509    3621.5421 
  184338    504.39582   -68407.297            0   -36142.012    3622.1628 
  184415    504.39537   -68403.806            0    -36138.55     3622.908 
  184492    504.39587    -68400.41            0   -36135.122     3623.771 
  184569    504.39707   -68397.093            0   -36131.728    3624.7339 
  184646    504.39869   -68393.837            0   -36128.369    3625.7739 
  184723    504.40041   -68390.621            0   -36125.043    3626.8723 
  184800    504.40188   -68387.424            0   -36121.752     3628.011 
  184877     504.4028   -68384.226            0   -36118.495    3629.1739 
  184954    504.40291    -68381.01            0   -36115.272     3630.347 
  185031    504.40198   -68377.762            0   -36112.083    3631.5216 
  185108    504.39984    -68374.47            0   -36108.928    3632.6967 
  185185    504.39635   -68371.126            0   -36105.808     3633.878 
  185262    504.39141   -68367.723            0   -36102.721    3635.0752 
  185339    504.38495   -68364.258            0   -36099.668     3636.292 
  185416    504.37697   -68360.728            0    -36096.65    3637.5231 
  185493    504.36753    -68357.14            0   -36093.665    3638.7596 
  185570     504.3568   -68353.502            0   -36090.714    3639.9888 
  185647    504.34501   -68349.831            0   -36087.796     3641.196 
  185724    504.33247   -68346.145            0   -36084.913    3642.3703 
  185801    504.31952   -68342.466            0   -36082.062    3643.5059 
  185878    504.30653   -68338.818            0   -36079.245    3644.6018 
  185955    504.29384   -68335.222            0   -36076.462    3645.6626 
  186032    504.28179   -68331.701            0   -36073.711    3646.6932 
  186109     504.2707   -68328.274            0   -36070.994    3647.6971 
  186186    504.26087   -68324.961            0   -36068.309    3648.6803 
  186263    504.25256   -68321.778            0   -36065.657    3649.6499 
  186340    504.24601    -68318.74            0   -36063.039    3650.6139 
  186417    504.24141    -68315.86            0   -36060.452    3651.5783 
  186494    504.23891   -68313.146            0   -36057.899    3652.5457 
  186571    504.23861   -68310.606            0   -36055.377    3653.5198 
  186648    504.24059   -68308.244            0   -36052.889    3654.5036 
  186725    504.24487   -68306.061            0   -36050.433    3655.4983 
  186802    504.25143   -68304.058            0    -36048.01     3656.501 
  186879    504.26024    -68302.23            0   -36045.619    3657.5058 
  186956    504.27122   -68300.574            0    -36043.26     3658.502 
  187033    504.28432   -68299.087            0   -36040.935    3659.4717 
  187110    504.29948   -68297.764            0   -36038.642    3660.3918 
  187187    504.31669   -68296.605            0   -36036.383    3661.2365 
  187264    504.33598   -68295.612            0   -36034.156    3661.9823 
  187341     504.3574   -68294.789            0   -36031.962    3662.6142 
  187418    504.38107   -68294.143            0   -36029.802    3663.1272 
  187495    504.40711   -68293.681            0   -36027.675    3663.5249 
  187572    504.43563   -68293.413            0   -36025.582    3663.8215 
  187649    504.46674   -68293.343            0   -36023.522    3664.0381 
  187726    504.50047   -68293.475            0   -36021.497    3664.2018 
  187803    504.53682    -68293.81            0   -36019.506     3664.345 
  187880    504.57574   -68294.343            0   -36017.549     3664.502 
  187957    504.61711   -68295.068            0   -36015.628     3664.705 
  188034    504.66078   -68295.975            0   -36013.742     3664.981 
  188111    504.70655   -68297.052            0   -36011.891    3665.3446 
  188188    504.75418   -68298.284            0   -36010.076    3665.8034 
  188265    504.80345   -68299.657            0   -36008.297    3666.3571 
  188342     504.8541   -68301.154            0   -36006.555    3666.9973 
  188419    504.90589   -68302.762            0    -36004.85    3667.7092 
  188496    504.95859   -68304.466            0   -36003.182     3668.472 
  188573    505.01198   -68306.251            0   -36001.552    3669.2602 
  188650    505.06588   -68308.107            0    -35999.96    3670.0466 
  188727    505.12012   -68310.023            0   -35998.407    3670.8048 
  188804     505.1746   -68311.994            0   -35996.892    3671.5149 
  188881    505.22925   -68314.015            0   -35995.418    3672.1639 
  188958    505.28406   -68316.087            0   -35993.983    3672.7451 
  189035    505.33905   -68318.209            0   -35992.588    3673.2545 
  189112    505.39423   -68320.385            0   -35991.234    3673.6871 
  189189    505.44964   -68322.617            0   -35989.922    3674.0373 
  189266    505.50531   -68324.908            0   -35988.651    3674.2956 
  189343    505.56127   -68327.258            0   -35987.422     3674.451 
  189420    505.61754    -68329.67            0   -35986.235    3674.4922 
  189497    505.67414   -68332.148            0   -35985.091    3674.4125 
  189574    505.73112   -68334.692            0   -35983.991    3674.2105 
  189651     505.7885   -68337.306            0   -35982.934    3673.8864 
  189728    505.84629    -68339.99            0   -35981.922    3673.4462 
  189805    505.90444   -68342.743            0   -35980.955    3672.9007 
  189882    505.96287   -68345.558            0   -35980.032    3672.2631 
  189959    506.02143   -68348.427            0   -35979.155    3671.5499 
  190036    506.07988   -68351.335            0   -35978.325    3670.7794 
  190113     506.1379   -68354.263            0    -35977.54    3669.9693 
  190190     506.1951   -68357.184            0   -35976.803    3669.1384 
  190267    506.25097   -68360.069            0   -35976.113    3668.3047 
  190344    506.30499   -68362.882            0   -35975.471    3667.4825 
  190421    506.35652   -68365.585            0   -35974.878    3666.6845 
  190498    506.40494   -68368.137            0   -35974.333     3665.924 
  190575    506.44958   -68370.497            0   -35973.837    3665.2103 
  190652     506.4898   -68372.623            0   -35973.391    3664.5339 
  190729    506.52488   -68374.471            0   -35972.995    3663.8787 
  190806    506.55415   -68375.997            0   -35972.648    3663.2395 
  190883      506.577   -68377.163            0   -35972.352    3662.6212 
  190960    506.59297   -68377.939            0   -35972.107    3662.0382 
  191037    506.60177   -68378.307            0   -35971.912    3661.5072 
  191114    506.60331   -68378.261            0   -35971.768    3661.0395 
  191191    506.59761   -68377.803            0   -35971.674    3660.6392 
  191268    506.58482   -68376.942            0   -35971.631    3660.3028 
  191345    506.56511   -68375.689            0   -35971.639    3660.0188 
  191422    506.53867   -68374.057            0   -35971.698    3659.7731 
  191499    506.50566   -68372.053            0   -35971.806    3659.5516 
  191576     506.4662   -68369.688            0   -35971.965    3659.3456 
  191653    506.42042   -68366.968            0   -35972.173    3659.1532 
  191730    506.36848   -68363.902            0   -35972.431    3658.9812 
  191807    506.31054   -68360.503            0   -35972.737    3658.8427 
  191884    506.24683   -68356.782            0   -35973.092    3658.7544 
  191961    506.17763   -68352.758            0   -35973.495    3658.7305 
  192038    506.10321   -68348.448            0   -35973.945    3658.7731 
  192115    506.02384   -68343.868            0   -35974.442    3658.8796 
  192192     505.9398   -68339.035            0   -35974.985    3659.0453 
  192269     505.8513   -68333.963            0   -35975.574    3659.2638 
  192346    505.75859   -68328.666            0   -35976.208    3659.5244 
  192423    505.66189   -68323.158            0   -35976.886    3659.8098 
  192500    505.56146   -68317.455            0   -35977.607    3660.1024 
  192577    505.45761   -68311.575            0    -35978.37    3660.3878 
  192654    505.35066    -68305.54            0   -35979.176    3660.6562 
  192731      505.241   -68299.371            0   -35980.022    3660.9033 
  192808    505.12901   -68293.094            0   -35980.908    3661.1292 
  192885    505.01507    -68286.73            0   -35981.834    3661.3354 
  192962    504.89953   -68280.303            0   -35982.797    3661.5212 
  193039    504.78274   -68273.833            0   -35983.799    3661.6811 
  193116    504.66501    -68267.34            0   -35984.836    3661.8025 
  193193    504.54671   -68260.846            0   -35985.909    3661.8671 
  193270    504.42822   -68254.374            0   -35987.017    3661.8533 
  193347    504.31002   -68247.954            0   -35988.158     3661.736 
  193424    504.19264    -68241.62            0   -35989.332    3661.4941 
  193501     504.0767   -68235.409            0   -35990.538    3661.1164 
  193578    503.96279   -68229.359            0   -35991.775    3660.6101 
  193655    503.85148   -68223.506            0   -35993.042    3659.9988 
  193732    503.74326    -68217.88            0   -35994.339    3659.3019 
  193809    503.63857   -68212.508            0   -35995.663    3658.5304 
  193886    503.53779   -68207.413            0   -35997.015    3657.6963 
  193963    503.44126   -68202.618            0   -35998.394    3656.8131 
  194040    503.34928   -68198.139            0     -35999.8    3655.8945 
  194117    503.26208   -68193.991            0    -36001.23    3654.9508 
  194194    503.17981   -68190.184            0   -36002.685    3653.9863 
  194271     503.1026   -68186.724            0   -36004.165     3652.999 
  194348    503.03051   -68183.615            0   -36005.667     3651.983 
  194425    502.96355   -68180.858            0   -36007.193    3650.9316 
  194502     502.9017    -68178.45            0   -36008.741    3649.8413 
  194579    502.84487   -68176.385            0   -36010.312    3648.7112 
  194656    502.79294   -68174.655            0   -36011.904    3647.5412 
  194733    502.74571   -68173.247            0   -36013.517    3646.3263 
  194810     502.7029   -68172.142            0    -36015.15    3645.0594 
  194887    502.66418   -68171.319            0   -36016.805     3643.728 
  194964    502.62919   -68170.756            0    -36018.48    3642.3194 
  195041    502.59754   -68170.426            0   -36020.174     3640.825 
  195118    502.56886   -68170.305            0   -36021.888    3639.2381 
  195195    502.54275   -68170.369            0   -36023.622    3637.5544 
  195272    502.51884   -68170.593            0   -36025.376    3635.7702 
  195349    502.49676   -68170.953            0   -36027.148     3633.882 
  195426    502.47614   -68171.425            0   -36028.939    3631.8867 
  195503     502.4566   -68171.986            0   -36030.749    3629.7831 
  195580    502.43777    -68172.61            0   -36032.578    3627.5739 
  195657    502.41925   -68173.273            0   -36034.426    3625.2619 
  195734    502.40062   -68173.946            0   -36036.291    3622.8519 
  195811    502.38145   -68174.605            0   -36038.175    3620.3546 
  195888    502.36133   -68175.219            0   -36040.078     3617.783 
  195965    502.33982   -68175.764            0   -36041.998    3615.1499 
  196042    502.31653   -68176.212            0   -36043.935    3612.4735 
  196119    502.29109    -68176.54            0   -36045.891    3609.7729 
  196196    502.26318   -68176.727            0   -36047.863    3607.0687 
  196273    502.23253   -68176.756            0   -36049.853    3604.3829 
  196350    502.19894   -68176.614            0    -36051.86    3601.7357 
  196427    502.16232   -68176.295            0   -36053.883    3599.1443 
  196504    502.12265   -68175.797            0   -36055.923    3596.6201 
  196581    502.08002   -68175.126            0   -36057.978    3594.1667 
  196658    502.03462   -68174.292            0    -36060.05    3591.7875 
  196735     501.9867   -68173.314            0   -36062.136    3589.4898 
  196812    501.93667   -68172.215            0   -36064.238    3587.2835 
  196889      501.885   -68171.026            0   -36066.354    3585.1803 
  196966    501.83225   -68169.781            0   -36068.484    3583.1927 
  197043    501.77903    -68168.52            0   -36070.627    3581.3316 
  197120    501.72594   -68167.282            0   -36072.784    3579.6046 
  197197    501.67356     -68166.1            0   -36074.954     3578.017 
  197274    501.62236   -68165.008            0   -36077.137    3576.5701 
  197351    501.57273   -68164.027            0   -36079.331    3575.2599 
  197428     501.5249   -68163.174            0   -36081.537    3574.0784 
  197505    501.47899   -68162.455            0   -36083.755    3573.0145 
  197582    501.43497   -68161.867            0   -36085.983    3572.0521 
  197659    501.39268   -68161.401            0   -36088.222    3571.1709 
  197736    501.35186    -68161.04            0   -36090.472    3570.3508 
  197813    501.31216    -68160.76            0   -36092.731    3569.5711 
  197890    501.27318   -68160.536            0   -36095.001    3568.8126 
  197967    501.23449    -68160.34            0    -36097.28    3568.0577 
  198044    501.19566   -68160.143            0   -36099.567    3567.2901 
  198121     501.1563   -68159.923            0   -36101.864    3566.4939 
  198198     501.1161   -68159.656            0    -36104.17    3565.6563 
  198275    501.07478   -68159.327            0   -36106.483    3564.7668 
  198352    501.03219   -68158.924            0   -36108.805    3563.8188 
  198429     500.9882   -68158.438            0   -36111.133    3562.8067 
  198506    500.94274   -68157.867            0    -36113.47    3561.7287 
  198583    500.89581   -68157.208            0   -36115.813    3560.5874 
  198660     500.8474   -68156.461            0   -36118.162    3559.3871 
  198737    500.79757   -68155.629            0   -36120.518     3558.135 
  198814     500.7464   -68154.717            0    -36122.88    3556.8413 
  198891    500.69399   -68153.731            0   -36125.246     3555.519 
  198968    500.64048    -68152.68            0   -36127.618     3554.181 
  199045    500.58603   -68151.573            0   -36129.994    3552.8394 
  199122    500.53081   -68150.421            0   -36132.375    3551.5068 
  199199    500.47499   -68149.235            0   -36134.759    3550.1939 
  199276    500.41878   -68148.026            0   -36137.146    3548.9051 
  199353    500.36236   -68146.807            0   -36139.536    3547.6386 
  199430    500.30592    -68145.59            0   -36141.928     3546.386 
  199507    500.24964   -68144.384            0   -36144.323     3545.137 
  199584    500.19366   -68143.199            0   -36146.719    3543.8835 
  199661    500.13814   -68142.044            0   -36149.116    3542.6217 
  199738    500.08319   -68140.927            0   -36151.514    3541.3502 
  199815    500.02897   -68139.856            0   -36153.912    3540.0731 
  199892    499.97559    -68138.84            0    -36156.31    3538.8005 
  199969    499.92319   -68137.885            0   -36158.707    3537.5446 
  200000    499.90239    -68137.52            0   -36159.672    3537.0455 
Loop time of 1792.41 on 20 procs for 200000 steps with 21461 atoms

Performance: 0.096 ns/day, 248.947 hours/ns, 111.581 timesteps/s
99.7% CPU use with 20 MPI tasks x 1 OpenMP threads

MPI task timing breakdown:
Section |  min time  |  avg time  |  max time  |%varavg| %total
---------------------------------------------------------------
Pair    | 893.97     | 1501.1     | 1748.9     | 581.0 | 83.75
Neigh   | 0.1057     | 0.16173    | 0.18099    |   5.1 |  0.01
Comm    | 34.894     | 268.14     | 877.15     |1380.5 | 14.96
Output  | 0.069121   | 0.073365   | 0.13399    |   5.1 |  0.00
Modify  | 6.4911     | 20.97      | 48.269     | 328.0 |  1.17
Other   |            | 1.924      |            |       |  0.11

Nlocal:    1073.05 ave 1202 max 868 min
Histogram: 2 2 0 0 2 0 0 9 4 1
Nghost:    1658.2 ave 1821 max 1407 min
Histogram: 3 1 0 3 1 0 0 2 7 3
Neighs:    0 ave 0 max 0 min
Histogram: 20 0 0 0 0 0 0 0 0 0
FullNghs:  29116.5 ave 34855 max 20506 min
Histogram: 2 2 0 0 1 1 5 6 2 1

Total # of neighbors = 582330
Ave neighs/atom = 27.1343
Neighbor list builds = 87
Dangerous builds = 0
ERROR: Variable scale: Invalid thermo keyword 'V' in variable formula (src/variable.cpp:2110)
Last command: variable     k11 equal trap(f_JJ[3])*${scale}
--------------------------------------------------------------------------
Primary job  terminated normally, but 1 process returned
a non-zero exit code. Per user-direction, the job has been aborted.
--------------------------------------------------------------------------
--------------------------------------------------------------------------
mpirun detected that one or more processes exited with non-zero status, thus causing
the job to be terminated. The first process to do so was:

  Process name: [[16342,1],12]
  Exit code:    1
--------------------------------------------------------------------------
