 # Si8
 CRYSTAL
 PRIMVEC
    108.87404740        0.00000000        0.00000000
      0.00000000       27.21851185        0.00000000
      0.00000000        0.00000000       27.21851185
 CONVVEC
    108.87404740        0.00000000        0.00000000
      0.00000000       27.21851185        0.00000000
      0.00000000        0.00000000       27.21851185
 PRIMCOORD
     4000 1
14        4.08277678        4.08277678        1.36092559
14        0.00000000        2.72185118        2.72185118
14        4.08277678        1.36092559        4.08277678
14        0.00000000        0.00000000        0.00000000
14        1.36092559        4.08277678        4.08277678
14        2.72185118        2.72185118        0.00000000
14        1.36092559        1.36092559        1.36092559
14        2.72185118        0.00000000        2.72185118
14        9.52647915        4.08277678        1.36092559
14        5.44370237        2.72185118        2.72185118
14        9.52647915        1.36092559        4.08277678
14        5.44370237        0.00000000        0.00000000
14        6.80462796        4.08277678        4.08277678
14        8.16555355        2.72185118        0.00000000
14        6.80462796        1.36092559        1.36092559
14        8.16555355        0.00000000        2.72185118
14       14.97018152        4.08277678        1.36092559
14       10.88740474        2.72185118        2.72185118
14       14.97018152        1.36092559        4.08277678
14       10.88740474        0.00000000        0.00000000
14       12.24833033        4.08277678        4.08277678
14       13.60925592        2.72185118        0.00000000
14       12.24833033        1.36092559        1.36092559
14       13.60925592        0.00000000        2.72185118
14       20.41388389        4.08277678        1.36092559
14       16.33110711        2.72185118        2.72185118
14       20.41388389        1.36092559        4.08277678
14       16.33110711        0.00000000        0.00000000
14       17.69203270        4.08277678        4.08277678
14       19.05295829        2.72185118        0.00000000
14       17.69203270        1.36092559        1.36092559
14       19.05295829        0.00000000        2.72185118
14       25.85758626        4.08277678        1.36092559
14       21.77480948        2.72185118        2.72185118
14       25.85758626        1.36092559        4.08277678
14       21.77480948        0.00000000        0.00000000
14       23.13573507        4.08277678        4.08277678
14       24.49666066        2.72185118        0.00000000
14       23.13573507        1.36092559        1.36092559
14       24.49666066        0.00000000        2.72185118
14       31.30128863        4.08277678        1.36092559
14       27.21851185        2.72185118        2.72185118
14       31.30128863        1.36092559        4.08277678
14       27.21851185        0.00000000        0.00000000
14       28.57943744        4.08277678        4.08277678
14       29.94036303        2.72185118        0.00000000
14       28.57943744        1.36092559        1.36092559
14       29.94036303        0.00000000        2.72185118
14       36.74499100        4.08277678        1.36092559
14       32.66221422        2.72185118        2.72185118
14       36.74499100        1.36092559        4.08277678
14       32.66221422        0.00000000        0.00000000
14       34.02313981        4.08277678        4.08277678
14       35.38406540        2.72185118        0.00000000
14       34.02313981        1.36092559        1.36092559
14       35.38406540        0.00000000        2.72185118
14       42.18869337        4.08277678        1.36092559
14       38.10591659        2.72185118        2.72185118
14       42.18869337        1.36092559        4.08277678
14       38.10591659        0.00000000        0.00000000
14       39.46684218        4.08277678        4.08277678
14       40.82776777        2.72185118        0.00000000
14       39.46684218        1.36092559        1.36092559
14       40.82776777        0.00000000        2.72185118
14       47.63239574        4.08277678        1.36092559
14       43.54961896        2.72185118        2.72185118
14       47.63239574        1.36092559        4.08277678
14       43.54961896        0.00000000        0.00000000
14       44.91054455        4.08277678        4.08277678
14       46.27147014        2.72185118        0.00000000
14       44.91054455        1.36092559        1.36092559
14       46.27147014        0.00000000        2.72185118
14       53.07609811        4.08277678        1.36092559
14       48.99332133        2.72185118        2.72185118
14       53.07609811        1.36092559        4.08277678
14       48.99332133        0.00000000        0.00000000
14       50.35424692        4.08277678        4.08277678
14       51.71517251        2.72185118        0.00000000
14       50.35424692        1.36092559        1.36092559
14       51.71517251        0.00000000        2.72185118
14       58.51980048        4.08277678        1.36092559
14       54.43702370        2.72185118        2.72185118
14       58.51980048        1.36092559        4.08277678
14       54.43702370        0.00000000        0.00000000
14       55.79794929        4.08277678        4.08277678
14       57.15887488        2.72185118        0.00000000
14       55.79794929        1.36092559        1.36092559
14       57.15887488        0.00000000        2.72185118
14       63.96350285        4.08277678        1.36092559
14       59.88072607        2.72185118        2.72185118
14       63.96350285        1.36092559        4.08277678
14       59.88072607        0.00000000        0.00000000
14       61.24165166        4.08277678        4.08277678
14       62.60257725        2.72185118        0.00000000
14       61.24165166        1.36092559        1.36092559
14       62.60257725        0.00000000        2.72185118
14       69.40720522        4.08277678        1.36092559
14       65.32442844        2.72185118        2.72185118
14       69.40720522        1.36092559        4.08277678
14       65.32442844        0.00000000        0.00000000
14       66.68535403        4.08277678        4.08277678
14       68.04627962        2.72185118        0.00000000
14       66.68535403        1.36092559        1.36092559
14       68.04627962        0.00000000        2.72185118
14       74.85090759        4.08277678        1.36092559
14       70.76813081        2.72185118        2.72185118
14       74.85090759        1.36092559        4.08277678
14       70.76813081        0.00000000        0.00000000
14       72.12905640        4.08277678        4.08277678
14       73.48998199        2.72185118        0.00000000
14       72.12905640        1.36092559        1.36092559
14       73.48998199        0.00000000        2.72185118
14       80.29460996        4.08277678        1.36092559
14       76.21183318        2.72185118        2.72185118
14       80.29460996        1.36092559        4.08277678
14       76.21183318        0.00000000        0.00000000
14       77.57275877        4.08277678        4.08277678
14       78.93368437        2.72185118        0.00000000
14       77.57275877        1.36092559        1.36092559
14       78.93368437        0.00000000        2.72185118
14       85.73831233        4.08277678        1.36092559
14       81.65553555        2.72185118        2.72185118
14       85.73831233        1.36092559        4.08277678
14       81.65553555        0.00000000        0.00000000
14       83.01646114        4.08277678        4.08277678
14       84.37738674        2.72185118        0.00000000
14       83.01646114        1.36092559        1.36092559
14       84.37738674        0.00000000        2.72185118
14       91.18201470        4.08277678        1.36092559
14       87.09923792        2.72185118        2.72185118
14       91.18201470        1.36092559        4.08277678
14       87.09923792        0.00000000        0.00000000
14       88.46016351        4.08277678        4.08277678
14       89.82108910        2.72185118        0.00000000
14       88.46016351        1.36092559        1.36092559
14       89.82108910        0.00000000        2.72185118
14       96.62571707        4.08277678        1.36092559
14       92.54294029        2.72185118        2.72185118
14       96.62571707        1.36092559        4.08277678
14       92.54294029        0.00000000        0.00000000
14       93.90386588        4.08277678        4.08277678
14       95.26479147        2.72185118        0.00000000
14       93.90386588        1.36092559        1.36092559
14       95.26479147        0.00000000        2.72185118
14      102.06941944        4.08277678        1.36092559
14       97.98664266        2.72185118        2.72185118
14      102.06941944        1.36092559        4.08277678
14       97.98664266        0.00000000        0.00000000
14       99.34756825        4.08277678        4.08277678
14      100.70849384        2.72185118        0.00000000
14       99.34756825        1.36092559        1.36092559
14      100.70849384        0.00000000        2.72185118
14      107.51312181        4.08277678        1.36092559
14      103.43034503        2.72185118        2.72185118
14      107.51312181        1.36092559        4.08277678
14      103.43034503        0.00000000        0.00000000
14      104.79127062        4.08277678        4.08277678
14      106.15219622        2.72185118        0.00000000
14      104.79127062        1.36092559        1.36092559
14      106.15219622        0.00000000        2.72185118
14        4.08277678        9.52647915        1.36092559
14        0.00000000        8.16555355        2.72185118
14        4.08277678        6.80462796        4.08277678
14        0.00000000        5.44370237        0.00000000
14        1.36092559        9.52647915        4.08277678
14        2.72185119        8.16555355        0.00000000
14        1.36092559        6.80462796        1.36092559
14        2.72185119        5.44370237        2.72185118
14        9.52647915        9.52647915        1.36092559
14        5.44370237        8.16555355        2.72185118
14        9.52647915        6.80462796        4.08277678
14        5.44370237        5.44370237        0.00000000
14        6.80462796        9.52647915        4.08277678
14        8.16555355        8.16555355        0.00000000
14        6.80462796        6.80462796        1.36092559
14        8.16555355        5.44370237        2.72185118
14       14.97018152        9.52647915        1.36092559
14       10.88740474        8.16555355        2.72185118
14       14.97018152        6.80462796        4.08277678
14       10.88740474        5.44370237        0.00000000
14       12.24833033        9.52647915        4.08277678
14       13.60925592        8.16555355        0.00000000
14       12.24833033        6.80462796        1.36092559
14       13.60925592        5.44370237        2.72185118
14       20.41388389        9.52647915        1.36092559
14       16.33110711        8.16555355        2.72185118
14       20.41388389        6.80462796        4.08277678
14       16.33110711        5.44370237        0.00000000
14       17.69203270        9.52647915        4.08277678
14       19.05295829        8.16555355        0.00000000
14       17.69203270        6.80462796        1.36092559
14       19.05295829        5.44370237        2.72185118
14       25.85758626        9.52647915        1.36092559
14       21.77480948        8.16555355        2.72185118
14       25.85758626        6.80462796        4.08277678
14       21.77480948        5.44370237        0.00000000
14       23.13573507        9.52647915        4.08277678
14       24.49666066        8.16555355        0.00000000
14       23.13573507        6.80462796        1.36092559
14       24.49666066        5.44370237        2.72185118
14       31.30128863        9.52647915        1.36092559
14       27.21851185        8.16555355        2.72185118
14       31.30128863        6.80462796        4.08277678
14       27.21851185        5.44370237        0.00000000
14       28.57943744        9.52647915        4.08277678
14       29.94036303        8.16555355        0.00000000
14       28.57943744        6.80462796        1.36092559
14       29.94036303        5.44370237        2.72185118
14       36.74499100        9.52647915        1.36092559
14       32.66221422        8.16555355        2.72185118
14       36.74499100        6.80462796        4.08277678
14       32.66221422        5.44370237        0.00000000
14       34.02313981        9.52647915        4.08277678
14       35.38406540        8.16555355        0.00000000
14       34.02313981        6.80462796        1.36092559
14       35.38406540        5.44370237        2.72185118
14       42.18869337        9.52647915        1.36092559
14       38.10591659        8.16555355        2.72185118
14       42.18869337        6.80462796        4.08277678
14       38.10591659        5.44370237        0.00000000
14       39.46684218        9.52647915        4.08277678
14       40.82776777        8.16555355        0.00000000
14       39.46684218        6.80462796        1.36092559
14       40.82776777        5.44370237        2.72185118
14       47.63239574        9.52647915        1.36092559
14       43.54961896        8.16555355        2.72185118
14       47.63239574        6.80462796        4.08277678
14       43.54961896        5.44370237        0.00000000
14       44.91054455        9.52647915        4.08277678
14       46.27147014        8.16555355        0.00000000
14       44.91054455        6.80462796        1.36092559
14       46.27147014        5.44370237        2.72185118
14       53.07609811        9.52647915        1.36092559
14       48.99332133        8.16555355        2.72185118
14       53.07609811        6.80462796        4.08277678
14       48.99332133        5.44370237        0.00000000
14       50.35424692        9.52647915        4.08277678
14       51.71517251        8.16555355        0.00000000
14       50.35424692        6.80462796        1.36092559
14       51.71517251        5.44370237        2.72185118
14       58.51980048        9.52647915        1.36092559
14       54.43702370        8.16555355        2.72185118
14       58.51980048        6.80462796        4.08277678
14       54.43702370        5.44370237        0.00000000
14       55.79794929        9.52647915        4.08277678
14       57.15887488        8.16555355        0.00000000
14       55.79794929        6.80462796        1.36092559
14       57.15887488        5.44370237        2.72185118
14       63.96350285        9.52647915        1.36092559
14       59.88072607        8.16555355        2.72185118
14       63.96350285        6.80462796        4.08277678
14       59.88072607        5.44370237        0.00000000
14       61.24165166        9.52647915        4.08277678
14       62.60257725        8.16555355        0.00000000
14       61.24165166        6.80462796        1.36092559
14       62.60257725        5.44370237        2.72185118
14       69.40720522        9.52647915        1.36092559
14       65.32442844        8.16555355        2.72185118
14       69.40720522        6.80462796        4.08277678
14       65.32442844        5.44370237        0.00000000
14       66.68535403        9.52647915        4.08277678
14       68.04627962        8.16555355        0.00000000
14       66.68535403        6.80462796        1.36092559
14       68.04627962        5.44370237        2.72185118
14       74.85090759        9.52647915        1.36092559
14       70.76813081        8.16555355        2.72185118
14       74.85090759        6.80462796        4.08277678
14       70.76813081        5.44370237        0.00000000
14       72.12905640        9.52647915        4.08277678
14       73.48998199        8.16555355        0.00000000
14       72.12905640        6.80462796        1.36092559
14       73.48998199        5.44370237        2.72185118
14       80.29460996        9.52647915        1.36092559
14       76.21183318        8.16555355        2.72185118
14       80.29460996        6.80462796        4.08277678
14       76.21183318        5.44370237        0.00000000
14       77.57275877        9.52647915        4.08277678
14       78.93368437        8.16555355        0.00000000
14       77.57275877        6.80462796        1.36092559
14       78.93368437        5.44370237        2.72185118
14       85.73831233        9.52647915        1.36092559
14       81.65553555        8.16555355        2.72185118
14       85.73831233        6.80462796        4.08277678
14       81.65553555        5.44370237        0.00000000
14       83.01646114        9.52647915        4.08277678
14       84.37738674        8.16555355        0.00000000
14       83.01646114        6.80462796        1.36092559
14       84.37738674        5.44370237        2.72185118
14       91.18201470        9.52647915        1.36092559
14       87.09923792        8.16555355        2.72185118
14       91.18201470        6.80462796        4.08277678
14       87.09923792        5.44370237        0.00000000
14       88.46016351        9.52647915        4.08277678
14       89.82108910        8.16555355        0.00000000
14       88.46016351        6.80462796        1.36092559
14       89.82108910        5.44370237        2.72185118
14       96.62571707        9.52647915        1.36092559
14       92.54294029        8.16555355        2.72185118
14       96.62571707        6.80462796        4.08277678
14       92.54294029        5.44370237        0.00000000
14       93.90386588        9.52647915        4.08277678
14       95.26479147        8.16555355        0.00000000
14       93.90386588        6.80462796        1.36092559
14       95.26479147        5.44370237        2.72185118
14      102.06941944        9.52647915        1.36092559
14       97.98664266        8.16555355        2.72185118
14      102.06941944        6.80462796        4.08277678
14       97.98664266        5.44370237        0.00000000
14       99.34756825        9.52647915        4.08277678
14      100.70849384        8.16555355        0.00000000
14       99.34756825        6.80462796        1.36092559
14      100.70849384        5.44370237        2.72185118
14      107.51312181        9.52647915        1.36092559
14      103.43034503        8.16555355        2.72185118
14      107.51312181        6.80462796        4.08277678
14      103.43034503        5.44370237        0.00000000
14      104.79127062        9.52647915        4.08277678
14      106.15219622        8.16555355        0.00000000
14      104.79127062        6.80462796        1.36092559
14      106.15219622        5.44370237        2.72185118
14        4.08277678       14.97018152        1.36092559
14        0.00000000       13.60925592        2.72185118
14        4.08277678       12.24833033        4.08277678
14        0.00000000       10.88740474        0.00000000
14        1.36092559       14.97018152        4.08277678
14        2.72185119       13.60925592        0.00000000
14        1.36092559       12.24833033        1.36092559
14        2.72185119       10.88740474        2.72185118
14        9.52647915       14.97018152        1.36092559
14        5.44370237       13.60925592        2.72185118
14        9.52647915       12.24833033        4.08277678
14        5.44370237       10.88740474        0.00000000
14        6.80462796       14.97018152        4.08277678
14        8.16555355       13.60925592        0.00000000
14        6.80462796       12.24833033        1.36092559
14        8.16555355       10.88740474        2.72185118
14       14.97018152       14.97018152        1.36092559
14       10.88740474       13.60925592        2.72185118
14       14.97018152       12.24833033        4.08277678
14       10.88740474       10.88740474        0.00000000
14       12.24833033       14.97018152        4.08277678
14       13.60925592       13.60925592        0.00000000
14       12.24833033       12.24833033        1.36092559
14       13.60925592       10.88740474        2.72185118
14       20.41388389       14.97018152        1.36092559
14       16.33110711       13.60925592        2.72185118
14       20.41388389       12.24833033        4.08277678
14       16.33110711       10.88740474        0.00000000
14       17.69203270       14.97018152        4.08277678
14       19.05295829       13.60925592        0.00000000
14       17.69203270       12.24833033        1.36092559
14       19.05295829       10.88740474        2.72185118
14       25.85758626       14.97018152        1.36092559
14       21.77480948       13.60925592        2.72185118
14       25.85758626       12.24833033        4.08277678
14       21.77480948       10.88740474        0.00000000
14       23.13573507       14.97018152        4.08277678
14       24.49666066       13.60925592        0.00000000
14       23.13573507       12.24833033        1.36092559
14       24.49666066       10.88740474        2.72185118
14       31.30128863       14.97018152        1.36092559
14       27.21851185       13.60925592        2.72185118
14       31.30128863       12.24833033        4.08277678
14       27.21851185       10.88740474        0.00000000
14       28.57943744       14.97018152        4.08277678
14       29.94036303       13.60925592        0.00000000
14       28.57943744       12.24833033        1.36092559
14       29.94036303       10.88740474        2.72185118
14       36.74499100       14.97018152        1.36092559
14       32.66221422       13.60925592        2.72185118
14       36.74499100       12.24833033        4.08277678
14       32.66221422       10.88740474        0.00000000
14       34.02313981       14.97018152        4.08277678
14       35.38406540       13.60925592        0.00000000
14       34.02313981       12.24833033        1.36092559
14       35.38406540       10.88740474        2.72185118
14       42.18869337       14.97018152        1.36092559
14       38.10591659       13.60925592        2.72185118
14       42.18869337       12.24833033        4.08277678
14       38.10591659       10.88740474        0.00000000
14       39.46684218       14.97018152        4.08277678
14       40.82776777       13.60925592        0.00000000
14       39.46684218       12.24833033        1.36092559
14       40.82776777       10.88740474        2.72185118
14       47.63239574       14.97018152        1.36092559
14       43.54961896       13.60925592        2.72185118
14       47.63239574       12.24833033        4.08277678
14       43.54961896       10.88740474        0.00000000
14       44.91054455       14.97018152        4.08277678
14       46.27147014       13.60925592        0.00000000
14       44.91054455       12.24833033        1.36092559
14       46.27147014       10.88740474        2.72185118
14       53.07609811       14.97018152        1.36092559
14       48.99332133       13.60925592        2.72185118
14       53.07609811       12.24833033        4.08277678
14       48.99332133       10.88740474        0.00000000
14       50.35424692       14.97018152        4.08277678
14       51.71517251       13.60925592        0.00000000
14       50.35424692       12.24833033        1.36092559
14       51.71517251       10.88740474        2.72185118
14       58.51980048       14.97018152        1.36092559
14       54.43702370       13.60925592        2.72185118
14       58.51980048       12.24833033        4.08277678
14       54.43702370       10.88740474        0.00000000
14       55.79794929       14.97018152        4.08277678
14       57.15887488       13.60925592        0.00000000
14       55.79794929       12.24833033        1.36092559
14       57.15887488       10.88740474        2.72185118
14       63.96350285       14.97018152        1.36092559
14       59.88072607       13.60925592        2.72185118
14       63.96350285       12.24833033        4.08277678
14       59.88072607       10.88740474        0.00000000
14       61.24165166       14.97018152        4.08277678
14       62.60257725       13.60925592        0.00000000
14       61.24165166       12.24833033        1.36092559
14       62.60257725       10.88740474        2.72185118
14       69.40720522       14.97018152        1.36092559
14       65.32442844       13.60925592        2.72185118
14       69.40720522       12.24833033        4.08277678
14       65.32442844       10.88740474        0.00000000
14       66.68535403       14.97018152        4.08277678
14       68.04627962       13.60925592        0.00000000
14       66.68535403       12.24833033        1.36092559
14       68.04627962       10.88740474        2.72185118
14       74.85090759       14.97018152        1.36092559
14       70.76813081       13.60925592        2.72185118
14       74.85090759       12.24833033        4.08277678
14       70.76813081       10.88740474        0.00000000
14       72.12905640       14.97018152        4.08277678
14       73.48998199       13.60925592        0.00000000
14       72.12905640       12.24833033        1.36092559
14       73.48998199       10.88740474        2.72185118
14       80.29460996       14.97018152        1.36092559
14       76.21183318       13.60925592        2.72185118
14       80.29460996       12.24833033        4.08277678
14       76.21183318       10.88740474        0.00000000
14       77.57275877       14.97018152        4.08277678
14       78.93368437       13.60925592        0.00000000
14       77.57275877       12.24833033        1.36092559
14       78.93368437       10.88740474        2.72185118
14       85.73831233       14.97018152        1.36092559
14       81.65553555       13.60925592        2.72185118
14       85.73831233       12.24833033        4.08277678
14       81.65553555       10.88740474        0.00000000
14       83.01646114       14.97018152        4.08277678
14       84.37738674       13.60925592        0.00000000
14       83.01646114       12.24833033        1.36092559
14       84.37738674       10.88740474        2.72185118
14       91.18201470       14.97018152        1.36092559
14       87.09923792       13.60925592        2.72185118
14       91.18201470       12.24833033        4.08277678
14       87.09923792       10.88740474        0.00000000
14       88.46016351       14.97018152        4.08277678
14       89.82108910       13.60925592        0.00000000
14       88.46016351       12.24833033        1.36092559
14       89.82108910       10.88740474        2.72185118
14       96.62571707       14.97018152        1.36092559
14       92.54294029       13.60925592        2.72185118
14       96.62571707       12.24833033        4.08277678
14       92.54294029       10.88740474        0.00000000
14       93.90386588       14.97018152        4.08277678
14       95.26479147       13.60925592        0.00000000
14       93.90386588       12.24833033        1.36092559
14       95.26479147       10.88740474        2.72185118
14      102.06941944       14.97018152        1.36092559
14       97.98664266       13.60925592        2.72185118
14      102.06941944       12.24833033        4.08277678
14       97.98664266       10.88740474        0.00000000
14       99.34756825       14.97018152        4.08277678
14      100.70849384       13.60925592        0.00000000
14       99.34756825       12.24833033        1.36092559
14      100.70849384       10.88740474        2.72185118
14      107.51312181       14.97018152        1.36092559
14      103.43034503       13.60925592        2.72185118
14      107.51312181       12.24833033        4.08277678
14      103.43034503       10.88740474        0.00000000
14      104.79127062       14.97018152        4.08277678
14      106.15219622       13.60925592        0.00000000
14      104.79127062       12.24833033        1.36092559
14      106.15219622       10.88740474        2.72185118
14        4.08277678       20.41388389        1.36092559
14        0.00000000       19.05295829        2.72185118
14        4.08277678       17.69203270        4.08277678
14        0.00000000       16.33110711        0.00000000
14        1.36092559       20.41388389        4.08277678
14        2.72185119       19.05295829        0.00000000
14        1.36092559       17.69203270        1.36092559
14        2.72185119       16.33110711        2.72185118
14        9.52647915       20.41388389        1.36092559
14        5.44370237       19.05295829        2.72185118
14        9.52647915       17.69203270        4.08277678
14        5.44370237       16.33110711        0.00000000
14        6.80462796       20.41388389        4.08277678
14        8.16555356       19.05295829        0.00000000
14        6.80462796       17.69203270        1.36092559
14        8.16555356       16.33110711        2.72185118
14       14.97018152       20.41388389        1.36092559
14       10.88740474       19.05295829        2.72185118
14       14.97018152       17.69203270        4.08277678
14       10.88740474       16.33110711        0.00000000
14       12.24833033       20.41388389        4.08277678
14       13.60925593       19.05295829        0.00000000
14       12.24833033       17.69203270        1.36092559
14       13.60925593       16.33110711        2.72185118
14       20.41388389       20.41388389        1.36092559
14       16.33110711       19.05295829        2.72185118
14       20.41388389       17.69203270        4.08277678
14       16.33110711       16.33110711        0.00000000
14       17.69203270       20.41388389        4.08277678
14       19.05295829       19.05295829        0.00000000
14       17.69203270       17.69203270        1.36092559
14       19.05295829       16.33110711        2.72185118
14       25.85758626       20.41388389        1.36092559
14       21.77480948       19.05295829        2.72185118
14       25.85758626       17.69203270        4.08277678
14       21.77480948       16.33110711        0.00000000
14       23.13573507       20.41388389        4.08277678
14       24.49666066       19.05295829        0.00000000
14       23.13573507       17.69203270        1.36092559