 # Si8
 CRYSTAL
 PRIMVEC
    105.16425420       28.17867698        0.00000000
     -7.04466925       26.29106355        0.00000000
      0.00000000        0.00000000       27.21851185
 CONVVEC
    105.16425420       28.17867698        0.00000000
     -7.04466925       26.29106355        0.00000000
      0.00000000        0.00000000       27.21851185
 PRIMCOORD
     4000 1
14        2.88695915        5.00035992        1.36092559
14       -0.70446692        2.62910635        2.72185118
14        3.59142607        2.37125356        4.08277678
14        0.00000000        0.00000000        0.00000000
14        0.25785279        4.29589299        4.08277678
14        1.92463943        3.33357328        0.00000000
14        0.96231972        1.66678664        1.36092559
14        2.62910635        0.70446692        2.72185118
14        8.14517186        6.40929377        1.36092559
14        4.55374579        4.03804020        2.72185118
14        8.84963878        3.78018741        4.08277678
14        5.25821271        1.40893385        0.00000000
14        5.51606550        5.70482684        4.08277678
14        7.18285214        4.74250713        0.00000000
14        6.22053242        3.07572049        1.36092559
14        7.88731906        2.11340077        2.72185118
14       13.40338457        7.81822762        1.36092559
14        9.81195850        5.44697405        2.72185118
14       14.10785149        5.18912126        4.08277678
14       10.51642542        2.81786770        0.00000000
14       10.77427821        7.11376069        4.08277678
14       12.44106485        6.15144098        0.00000000
14       11.47874513        4.48465434        1.36092559
14       13.14553177        3.52233462        2.72185118
14       18.66159727        9.22716147        1.36092559
14       15.07017120        6.85590790        2.72185118
14       19.36606420        6.59805511        4.08277678
14       15.77463813        4.22680155        0.00000000
14       16.03249092        8.52269454        4.08277678
14       17.69927756        7.56037483        0.00000000
14       16.73695784        5.89358819        1.36092559
14       18.40374448        4.93126847        2.72185118
14       23.91980998       10.63609532        1.36092559
14       20.32838391        8.26484175        2.72185118
14       24.62427691        8.00698896        4.08277678
14       21.03285084        5.63573540        0.00000000
14       21.29070363        9.93162839        4.08277678
14       22.95749027        8.96930868        0.00000000
14       21.99517055        7.30252204        1.36092559
14       23.66195719        6.34020232        2.72185118
14       29.17802269       12.04502917        1.36092559
14       25.58659662        9.67377560        2.72185118
14       29.88248962        9.41592281        4.08277678
14       26.29106355        7.04466925        0.00000000
14       26.54891634       11.34056224        4.08277678
14       28.21570298       10.37824253        0.00000000
14       27.25338326        8.71145589        1.36092559
14       28.92016990        7.74913617        2.72185118
14       34.43623540       13.45396301        1.36092559
14       30.84480933       11.08270945        2.72185118
14       35.14070233       10.82485666        4.08277678
14       31.54927626        8.45360310        0.00000000
14       31.80712905       12.74949609        4.08277678
14       33.47391569       11.78717637        0.00000000
14       32.51159597       10.12038974        1.36092559
14       34.17838261        9.15807002        2.72185118
14       39.69444811       14.86289686        1.36092559
14       36.10302204       12.49164330        2.72185118
14       40.39891504       12.23379051        4.08277678
14       36.80748897        9.86253694        0.00000000
14       37.06534176       14.15842994        4.08277678
14       38.73212840       13.19611022        0.00000000
14       37.76980868       11.52932358        1.36092559
14       39.43659532       10.56700387        2.72185118
14       44.95266082       16.27183071        1.36092559
14       41.36123475       13.90057715        2.72185118
14       45.65712775       13.64272436        4.08277678
14       42.06570168       11.27147079        0.00000000
14       42.32355447       15.56736379        4.08277678
14       43.99034111       14.60504407        0.00000000
14       43.02802139       12.93825743        1.36092559
14       44.69480803       11.97593772        2.72185118
14       50.21087353       17.68076456        1.36092559
14       46.61944746       15.30951100        2.72185118
14       50.91534046       15.05165821        4.08277678
14       47.32391439       12.68040464        0.00000000
14       47.58176718       16.97629764        4.08277678
14       49.24855382       16.01397792        0.00000000
14       48.28623410       14.34719128        1.36092559
14       49.95302074       13.38487157        2.72185118
14       55.46908624       19.08969841        1.36092559
14       51.87766017       16.71844485        2.72185118
14       56.17355317       16.46059206        4.08277678
14       52.58212710       14.08933849        0.00000000
14       52.83997989       18.38523149        4.08277678
14       54.50676653       17.42291177        0.00000000
14       53.54444681       15.75612513        1.36092559
14       55.21123345       14.79380542        2.72185118
14       60.72729895       20.49863226        1.36092559
14       57.13587288       18.12737870        2.72185118
14       61.43176588       17.86952591        4.08277678
14       57.84033981       15.49827234        0.00000000
14       58.09819260       19.79416534        4.08277678
14       59.76497924       18.83184562        0.00000000
14       58.80265952       17.16505898        1.36092559
14       60.46944616       16.20273927        2.72185118
14       65.98551166       21.90756611        1.36092559
14       62.39408559       19.53631255        2.72185118
14       66.68997859       19.27845976        4.08277678
14       63.09855252       16.90720619        0.00000000
14       63.35640531       21.20309919        4.08277678
14       65.02319195       20.24077947        0.00000000
14       64.06087223       18.57399283        1.36092559
14       65.72765887       17.61167312        2.72185118
14       71.24372437       23.31649996        1.36092559
14       67.65229830       20.94524639        2.72185118
14       71.94819130       20.68739360        4.08277678
14       68.35676523       18.31614004        0.00000000
14       68.61461802       22.61203303        4.08277678
14       70.28140466       21.64971332        0.00000000
14       69.31908494       19.98292668        1.36092559
14       70.98587158       19.02060696        2.72185118
14       76.50193708       24.72543381        1.36092559
14       72.91051101       22.35418024        2.72185118
14       77.20640401       22.09632745        4.08277678
14       73.61497794       19.72507389        0.00000000
14       73.87283073       24.02096688        4.08277678
14       75.53961737       23.05864717        0.00000000
14       74.57729765       21.39186053        1.36092559
14       76.24408429       20.42954081        2.72185118
14       81.76014979       26.13436766        1.36092559
14       78.16872372       23.76311409        2.72185118
14       82.46461672       23.50526130        4.08277678
14       78.87319065       21.13400774        0.00000000
14       79.13104344       25.42990073        4.08277678
14       80.79783008       24.46758102        0.00000000
14       79.83551036       22.80079438        1.36092559
14       81.50229700       21.83847466        2.72185118
14       87.01836250       27.54330151        1.36092559
14       83.42693643       25.17204794        2.72185118
14       87.72282943       24.91419515        4.08277678
14       84.13140336       22.54294159        0.00000000
14       84.38925615       26.83883458        4.08277678
14       86.05604279       25.87651487        0.00000000
14       85.09372307       24.20972823        1.36092559
14       86.76050971       23.24740851        2.72185118
14       92.27657521       28.95223536        1.36092559
14       88.68514914       26.58098179        2.72185118
14       92.98104214       26.32312900        4.08277678
14       89.38961607       23.95187544        0.00000000
14       89.64746886       28.24776843        4.08277678
14       91.31425550       27.28544872        0.00000000
14       90.35193578       25.61866208        1.36092559
14       92.01872242       24.65634236        2.72185118
14       97.53478792       30.36116921        1.36092559
14       93.94336185       27.98991564        2.72185118
14       98.23925485       27.73206285        4.08277678
14       94.64782878       25.36080929        0.00000000
14       94.90568157       29.65670228        4.08277678
14       96.57246821       28.69438257        0.00000000
14       95.61014849       27.02759593        1.36092559
14       97.27693513       26.06527621        2.72185118
14      102.79300063       31.77010305        1.36092559
14       99.20157456       29.39884949        2.72185118
14      103.49746756       29.14099670        4.08277678
14       99.90604149       26.76974314        0.00000000
14      100.16389428       31.06563613        4.08277678
14      101.83068092       30.10331641        0.00000000
14      100.86836120       28.43652978        1.36092559
14      102.53514784       27.47421006        2.72185118
14        1.47802530       10.25857263        1.36092559
14       -2.11340077        7.88731906        2.72185118
14        2.18249222        7.62946627        4.08277678
14       -1.40893385        5.25821271        0.00000000
14       -1.15108106        9.55410570        4.08277678
14        0.51570558        8.59178599        0.00000000
14       -0.44661413        6.92499935        1.36092559
14        1.22017251        5.96267963        2.72185118
14        6.73623801       11.66750648        1.36092559
14        3.14481194        9.29625291        2.72185118
14        7.44070493        9.03840012        4.08277678
14        3.84927886        6.66714656        0.00000000
14        4.10713165       10.96303955        4.08277678
14        5.77391829       10.00071984        0.00000000
14        4.81159858        8.33393320        1.36092559
14        6.47838522        7.37161348        2.72185118
14       11.99445072       13.07644033        1.36092559
14        8.40302465       10.70518676        2.72185118
14       12.69891764       10.44733397        4.08277678
14        9.10749157        8.07608041        0.00000000
14        9.36534436       12.37197340        4.08277678
14       11.03213100       11.40965369        0.00000000
14       10.06981129        9.74286705        1.36092559
14       11.73659793        8.78054733        2.72185118
14       17.25266343       14.48537418        1.36092559
14       13.66123736       12.11412061        2.72185118
14       17.95713035       11.85626782        4.08277678
14       14.36570428        9.48501426        0.00000000
14       14.62355707       13.78090725        4.08277678
14       16.29034371       12.81858754        0.00000000
14       15.32802400       11.15180090        1.36092559
14       16.99481064       10.18948118        2.72185118
14       22.51087614       15.89430803        1.36092559
14       18.91945007       13.52305446        2.72185118
14       23.21534306       13.26520167        4.08277678
14       19.62391699       10.89394811        0.00000000
14       19.88176978       15.18984110        4.08277678
14       21.54855642       14.22752139        0.00000000
14       20.58623671       12.56073475        1.36092559
14       22.25302334       11.59841503        2.72185118
14       27.76908885       17.30324188        1.36092559
14       24.17766278       14.93198831        2.72185118
14       28.47355577       14.67413552        4.08277678
14       24.88212970       12.30288196        0.00000000
14       25.13998249       16.59877495        4.08277678
14       26.80676913       15.63645524        0.00000000
14       25.84444941       13.96966860        1.36092559
14       27.51123605       13.00734888        2.72185118
14       33.02730156       18.71217572        1.36092559
14       29.43587549       16.34092216        2.72185118
14       33.73176848       16.08306937        4.08277678
14       30.14034241       13.71181581        0.00000000
14       30.39819520       18.00770880        4.08277678
14       32.06498184       17.04538908        0.00000000
14       31.10266212       15.37860244        1.36092559
14       32.76944876       14.41628273        2.72185118
14       38.28551426       20.12110957        1.36092559
14       34.69408819       17.74985601        2.72185118
14       38.98998119       17.49200322        4.08277678
14       35.39855512       15.12074965        0.00000000
14       35.65640791       19.41664265        4.08277678
14       37.32319455       18.45432293        0.00000000
14       36.36087483       16.78753629        1.36092559
14       38.02766147       15.82521658        2.72185118
14       43.54372697       21.53004342        1.36092559
14       39.95230090       19.15878986        2.72185118
14       44.24819390       18.90093707        4.08277678
14       40.65676783       16.52968350        0.00000000
14       40.91462062       20.82557650        4.08277678
14       42.58140726       19.86325678        0.00000000
14       41.61908754       18.19647014        1.36092559
14       43.28587418       17.23415043        2.72185118
14       48.80193968       22.93897727        1.36092559
14       45.21051361       20.56772371        2.72185118
14       49.50640661       20.30987092        4.08277678
14       45.91498054       17.93861735        0.00000000
14       46.17283333       22.23451035        4.08277678
14       47.83961997       21.27219063        0.00000000
14       46.87730025       19.60540399        1.36092559
14       48.54408689       18.64308428        2.72185118
14       54.06015239       24.34791112        1.36092559
14       50.46872632       21.97665756        2.72185118
14       54.76461932       21.71880477        4.08277678
14       51.17319325       19.34755120        0.00000000
14       51.43104604       23.64344420        4.08277678
14       53.09783268       22.68112448        0.00000000
14       52.13551296       21.01433784        1.36092559
14       53.80229960       20.05201813        2.72185118
14       59.31836510       25.75684497        1.36092559
14       55.72693903       23.38559141        2.72185118
14       60.02283203       23.12773862        4.08277678
14       56.43140596       20.75648505        0.00000000
14       56.68925875       25.05237805        4.08277678
14       58.35604539       24.09005833        0.00000000
14       57.39372567       22.42327169        1.36092559
14       59.06051231       21.46095198        2.72185118
14       64.57657781       27.16577882        1.36092559
14       60.98515174       24.79452526        2.72185118
14       65.28104474       24.53667246        4.08277678
14       61.68961867       22.16541890        0.00000000
14       61.94747146       26.46131190        4.08277678
14       63.61425810       25.49899218        0.00000000
14       62.65193838       23.83220554        1.36092559
14       64.31872502       22.86988583        2.72185118
14       69.83479052       28.57471267        1.36092559
14       66.24336445       26.20345910        2.72185118
14       70.53925745       25.94560631        4.08277678
14       66.94783138       23.57435275        0.00000000
14       67.20568417       27.87024574        4.08277678
14       68.87247081       26.90792603        0.00000000
14       67.91015109       25.24113939        1.36092559
14       69.57693773       24.27881967        2.72185118
14       75.09300323       29.98364652        1.36092559
14       71.50157716       27.61239295        2.72185118
14       75.79747016       27.35454016        4.08277678
14       72.20604409       24.98328660        0.00000000
14       72.46389688       29.27917959        4.08277678
14       74.13068352       28.31685988        0.00000000
14       73.16836380       26.65007324        1.36092559
14       74.83515044       25.68775352        2.72185118
14       80.35121594       31.39258037        1.36092559
14       76.75978987       29.02132680        2.72185118
14       81.05568287       28.76347401        4.08277678
14       77.46425680       26.39222045        0.00000000
14       77.72210959       30.68811344        4.08277678
14       79.38889623       29.72579373        0.00000000
14       78.42657651       28.05900709        1.36092559
14       80.09336315       27.09668737        2.72185118
14       85.60942865       32.80151422        1.36092559
14       82.01800258       30.43026065        2.72185118
14       86.31389558       30.17240786        4.08277678
14       82.72246951       27.80115430        0.00000000
14       82.98032230       32.09704729        4.08277678
14       84.64710894       31.13472758        0.00000000
14       83.68478922       29.46794094        1.36092559
14       85.35157586       28.50562122        2.72185118
14       90.86764136       34.21044807        1.36092559
14       87.27621529       31.83919450        2.72185118
14       91.57210829       31.58134171        4.08277678
14       87.98068222       29.21008815        0.00000000
14       88.23853501       33.50598114        4.08277678
14       89.90532165       32.54366143        0.00000000
14       88.94300193       30.87687479        1.36092559
14       90.60978857       29.91455507        2.72185118
14       96.12585407       35.61938192        1.36092559
14       92.53442800       33.24812835        2.72185118
14       96.83032100       32.99027556        4.08277678
14       93.23889493       30.61902200        0.00000000
14       93.49674772       34.91491499        4.08277678
14       95.16353436       33.95259528        0.00000000
14       94.20121464       32.28580864        1.36092559
14       95.86800128       31.32348892        2.72185118
14      101.38406678       37.02831576        1.36092559
14       97.79264071       34.65706220        2.72185118
14      102.08853371       34.39920941        4.08277678
14       98.49710764       32.02795585        0.00000000
14       98.75496043       36.32384884        4.08277678
14      100.42174707       35.36152912        0.00000000
14       99.45942735       33.69474248        1.36092559
14      101.12621399       32.73242277        2.72185118
14        0.06909145       15.51678534        1.36092559
14       -3.52233462       13.14553177        2.72185118
14        0.77355837       12.88767898        4.08277678
14       -2.81786770       10.51642542        0.00000000
14       -2.56001491       14.81231841        4.08277678
14       -0.89322827       13.84999870        0.00000000
14       -1.85554798       12.18321206        1.36092559
14       -0.18876134       11.22089234        2.72185118
14        5.32730416       16.92571919        1.36092559
14        1.73587809       14.55446562        2.72185118
14        6.03177108       14.29661283        4.08277678
14        2.44034501       11.92535927        0.00000000
14        2.69819780       16.22125226        4.08277678
14        4.36498444       15.25893255        0.00000000
14        3.40266473       13.59214591        1.36092559
14        5.06945137       12.62982619        2.72185118
14       10.58551687       18.33465304        1.36092559
14        6.99409080       15.96339947        2.72185118
14       11.28998379       15.70554668        4.08277678
14        7.69855772       13.33429312        0.00000000
14        7.95641051       17.63018611        4.08277678
14        9.62319715       16.66786640        0.00000000
14        8.66087744       15.00107976        1.36092559
14       10.32766408       14.03876004        2.72185118
14       15.84372958       19.74358689        1.36092559
14       12.25230351       17.37233332        2.72185118
14       16.54819650       17.11448053        4.08277678
14       12.95677043       14.74322697        0.00000000
14       13.21462322       19.03911996        4.08277678
14       14.88140986       18.07680025        0.00000000
14       13.91909015       16.41001361        1.36092559
14       15.58587679       15.44769389        2.72185118
14       21.10194229       21.15252074        1.36092559
14       17.51051622       18.78126717        2.72185118
14       21.80640921       18.52341438        4.08277678
14       18.21498314       16.15216082        0.00000000
14       18.47283593       20.44805381        4.08277678
14       20.13962257       19.48573410        0.00000000
14       19.17730286       17.81894746        1.36092559
14       20.84408950       16.85662774        2.72185118
14       26.36015500       22.56145459        1.36092559
14       22.76872893       20.19020102        2.72185118
14       27.06462192       19.93234823        4.08277678
14       23.47319585       17.56109467        0.00000000
14       23.73104864       21.85698766        4.08277678
14       25.39783528       20.89466795        0.00000000
14       24.43551557       19.22788131        1.36092559
14       26.10230221       18.26556159        2.72185118
14       31.61836771       23.97038843        1.36092559
14       28.02694164       21.59913487        2.72185118
14       32.32283463       21.34128208        4.08277678
14       28.73140856       18.97002851        0.00000000
14       28.98926135       23.26592151        4.08277678
14       30.65604799       22.30360179        0.00000000
14       29.69372828       20.63681515        1.36092559
14       31.36051492       19.67449544        2.72185118
14       36.87658042       25.37932228        1.36092559
14       33.28515435       23.00806872        2.72185118
14       37.58104734       22.75021593        4.08277678
14       33.98962127       20.37896236        0.00000000
14       34.24747406       24.67485536        4.08277678
14       35.91426070       23.71253564        0.00000000
14       34.95194099       22.04574900        1.36092559
14       36.61872763       21.08342929        2.72185118
14       42.13479313       26.78825613        1.36092559
14       38.54336706       24.41700257        2.72185118
14       42.83926005       24.15914978        4.08277678
14       39.24783398       21.78789621        0.00000000
14       39.50568677       26.08378921        4.08277678
14       41.17247341       25.12146949        0.00000000
14       40.21015370       23.45468285        1.36092559
14       41.87694033       22.49236314        2.72185118
14       47.39300584       28.19718998        1.36092559
14       43.80157977       25.82593642        2.72185118
14       48.09747276       25.56808363        4.08277678
14       44.50604669       23.19683006        0.00000000
14       44.76389948       27.49272306        4.08277678
14       46.43068612       26.53040334        0.00000000
14       45.46836641       24.86361670        1.36092559
14       47.13515304       23.90129699        2.72185118
14       52.65121855       29.60612383        1.36092559
14       49.05979248       27.23487027        2.72185118
14       53.35568547       26.97701748        4.08277678
14       49.76425940       24.60576391        0.00000000
14       50.02211219       28.90165691        4.08277678
14       51.68889883       27.93933719        0.00000000
14       50.72657911       26.27255055        1.36092559
14       52.39336575       25.31023084        2.72185118
14       57.90943125       31.01505768        1.36092559
14       54.31800518       28.64380412        2.72185118
14       58.61389818       28.38595133        4.08277678
14       55.02247211       26.01469776        0.00000000
14       55.28032490       30.31059076        4.08277678
14       56.94711154       29.34827104        0.00000000
14       55.98479182       27.68148440        1.36092559
14       57.65157846       26.71916469        2.72185118
14       63.16764396       32.42399153        1.36092559
14       59.57621789       30.05273797        2.72185118
14       63.87211089       29.79488517        4.08277678
14       60.28068482       27.42363161        0.00000000
14       60.53853761       31.71952461        4.08277678
14       62.20532425       30.75720489        0.00000000
14       61.24300453       29.09041825        1.36092559
14       62.90979117       28.12809853        2.72185118
14       68.42585667       33.83292538        1.36092559
14       64.83443060       31.46167181        2.72185118
14       69.13032360       31.20381902        4.08277678
14       65.53889753       28.83256546        0.00000000
14       65.79675032       33.12845845        4.08277678
14       67.46353696       32.16613874        0.00000000
14       66.50121724       30.49935210        1.36092559
14       68.16800388       29.53703238        2.72185118
14       73.68406938       35.24185923        1.36092559
14       70.09264331       32.87060566        2.72185118
14       74.38853631       32.61275287        4.08277678
14       70.79711024       30.24149931        0.00000000
14       71.05496303       34.53739230        4.08277678
14       72.72174967       33.57507259        0.00000000
14       71.75942995       31.90828595        1.36092559
14       73.42621659       30.94596623        2.72185118
14       78.94228209       36.65079308        1.36092559
14       75.35085602       34.27953951        2.72185118
14       79.64674902       34.02168672        4.08277678
14       76.05532295       31.65043316        0.00000000
14       76.31317574       35.94632615        4.08277678
14       77.97996238       34.98400644        0.00000000
14       77.01764266       33.31721980        1.36092559
14       78.68442930       32.35490008        2.72185118
14       84.20049480       38.05972693        1.36092559
14       80.60906873       35.68847336        2.72185118
14       84.90496173       35.43062057        4.08277678
14       81.31353566       33.05936701        0.00000000
14       81.57138845       37.35526000        4.08277678
14       83.23817509       36.39294029        0.00000000
14       82.27585537       34.72615365        1.36092559
14       83.94264201       33.76383393        2.72185118
14       89.45870751       39.46866078        1.36092559
14       85.86728144       37.09740721        2.72185118
14       90.16317444       36.83955442        4.08277678
14       86.57174837       34.46830086        0.00000000
14       86.82960116       38.76419385        4.08277678
14       88.49638780       37.80187414        0.00000000
14       87.53406808       36.13508750        1.36092559
14       89.20085472       35.17276778        2.72185118
14       94.71692022       40.87759462        1.36092559
14       91.12549415       38.50634106        2.72185118
14       95.42138715       38.24848827        4.08277678
14       91.82996108       35.87723471        0.00000000
14       92.08781387       40.17312770        4.08277678
14       93.75460051       39.21080799        0.00000000
14       92.79228079       37.54402135        1.36092559
14       94.45906743       36.58170163        2.72185118
14       99.97513293       42.28652847        1.36092559
14       96.38370686       39.91527491        2.72185118
14      100.67959986       39.65742212        4.08277678
14       97.08817379       37.28616855        0.00000000
14       97.34602658       41.58206155        4.08277678
14       99.01281322       40.61974183        0.00000000
14       98.05049350       38.95295519        1.36092559
14       99.71728014       37.99063548        2.72185118
14       -1.33984240       20.77499805        1.36092559
14       -4.93126847       18.40374448        2.72185118
14       -0.63537548       18.14589169        4.08277678
14       -4.22680155       15.77463813        0.00000000
14       -3.96894876       20.07053112        4.08277678
14       -2.30216212       19.10821141        0.00000000
14       -3.26448183       17.44142477        1.36092559
14       -1.59769519       16.47910505        2.72185118
14        3.91837031       22.18393190        1.36092559
14        0.32694424       19.81267833        2.72185118
14        4.62283723       19.55482554        4.08277678
14        1.03141116       17.18357198        0.00000000
14        1.28926395       21.47946497        4.08277678
14        2.95605059       20.51714526        0.00000000
14        1.99373088       18.85035862        1.36092559
14        3.66051752       17.88803890        2.72185118
14        9.17658302       23.59286575        1.36092559
14        5.58515695       21.22161218        2.72185118
14        9.88104994       20.96375939        4.08277678
14        6.28962387       18.59250583        0.00000000
14        6.54747666       22.88839882        4.08277678
14        8.21426330       21.92607911        0.00000000
14        7.25194359       20.25929247        1.36092559
14        8.91873023       19.29697275        2.72185118
14       14.43479573       25.00179960        1.36092559
14       10.84336966       22.63054603        2.72185118
14       15.13926265       22.37269324        4.08277678
14       11.54783658       20.00143968        0.00000000
14       11.80568937       24.29733267        4.08277678
14       13.47247601       23.33501296        0.00000000
14       12.51015630       21.66822632        1.36092559
14       14.17694294       20.70590660        2.72185118
14       19.69300844       26.41073345        1.36092559
14       16.10158237       24.03947988        2.72185118
14       20.39747536       23.78162709        4.08277678
14       16.80604929       21.41037353        0.00000000
14       17.06390208       25.70626652        4.08277678
14       18.73068872       24.74394681        0.00000000
14       17.76836901       23.07716017        1.36092559