 # Si8
  
        8000  atoms
           1  atom types
 
      0.000000000000     215.885229666496  xlo xhi
      0.000000000000      26.985653708006  ylo yhi
      0.000000000000      27.218511850000  zlo zhi
      3.552728709057       0.000000000000       0.000000000000  xy xz yz
 
Masses
 
            1   28.08500000             # Si
 
Atoms # atomic
 
         1    1        4.580757365364       3.514938751995       1.360925590000
         2    1        0.355272870253       2.698565365843       2.721851180000
         3    1        4.225484493806       0.816373376237       4.082776780000
         4    1        0.000000000000       0.000000000000       0.000000000000
         5    1        1.882191989607       3.870211623553       4.082776780000
         6    1        3.053838236096       2.343292495590       0.000000000000
         7    1        1.526919118048       1.171646247795       1.360925590000
         8    1        2.698565365843      -0.355272870253       2.721851180000
         9    1        9.977888106966       2.804393010183       1.360925590000
        10    1        5.752403611854       1.988019624032       2.721851180000
        11    1        9.622615235407       0.105827634426       4.082776780000
        12    1        5.397130741601      -0.710545741811       0.000000000000
        13    1        7.279322731208       3.159665881742       4.082776780000
        14    1        8.450968977698       1.632746753779       0.000000000000
        15    1        6.924049859649       0.461100505984       1.360925590000
        16    1        8.095696107445      -1.065818612064       2.721851180000
        17    1       15.375018848567       2.093847268372       1.360925590000
        18    1       11.149534353456       1.277473882221       2.721851180000
        19    1       15.019745977009      -0.604718107386       4.082776780000
        20    1       10.794261483203      -1.421091483623       0.000000000000
        21    1       12.676453472809       2.449120139930       4.082776780000
        22    1       13.848099719299       0.922201011968       0.000000000000
        23    1       12.321180601251      -0.249445235827       1.360925590000
        24    1       13.492826849046      -1.776364353876       2.721851180000
        25    1       20.772149590168       1.383301526561       1.360925590000
        26    1       16.546665095057       0.566928140409       2.721851180000
        27    1       20.416876718610      -1.315263849197       4.082776780000
        28    1       16.191392224804      -2.131637225434       0.000000000000
        29    1       18.073584214410       1.738574398119       4.082776780000
        30    1       19.245230460900       0.211655270156       0.000000000000
        31    1       17.718311342852      -0.959990977639       1.360925590000
        32    1       18.889957590647      -2.486910095687       2.721851180000
        33    1       26.169280331769       0.672755784749       1.360925590000
        34    1       21.943795836658      -0.143617601402       2.721851180000
        35    1       25.814007460211      -2.025809591008       4.082776780000
        36    1       21.588522966405      -2.842182967245       0.000000000000
        37    1       23.470714956012       1.028028656308       4.082776780000
        38    1       24.642361202501      -0.498890471655       0.000000000000
        39    1       23.115442084453      -1.670536719450       1.360925590000
        40    1       24.287088332248      -3.197455837498       2.721851180000
        41    1       31.566411073371      -0.037789957062       1.360925590000
        42    1       27.340926578259      -0.854163343213       2.721851180000
        43    1       31.211138201812      -2.736355332820       4.082776780000
        44    1       26.985653708006      -3.552728709057       0.000000000000
        45    1       28.867845697613       0.317482914496       4.082776780000
        46    1       30.039491944103      -1.209436213466       0.000000000000
        47    1       28.512572826055      -2.381082461261       1.360925590000
        48    1       29.684219073850      -3.908001579310       2.721851180000
        49    1       36.963541814972      -0.748335698873       1.360925590000
        50    1       32.738057319861      -1.564709085025       2.721851180000
        51    1       36.608268943414      -3.446901074631       4.082776780000
        52    1       32.382784449608      -4.263274450868       0.000000000000
        53    1       34.264976439214      -0.393062827315       4.082776780000
        54    1       35.436622685704      -1.919981955278       0.000000000000
        55    1       33.909703567656      -3.091628203073       1.360925590000
        56    1       35.081349815451      -4.618547321121       2.721851180000
        57    1       42.360672556573      -1.458881440685       1.360925590000
        58    1       38.135188061462      -2.275254826836       2.721851180000
        59    1       42.005399685015      -4.157446816442       4.082776780000
        60    1       37.779915191209      -4.973820192679       0.000000000000
        61    1       39.662107180815      -1.103608569126       4.082776780000
        62    1       40.833753427305      -2.630527697089       0.000000000000
        63    1       39.306834309257      -3.802173944884       1.360925590000
        64    1       40.478480557052      -5.329093062932       2.721851180000
        65    1       47.757803298174      -2.169427182496       1.360925590000
        66    1       43.532318803063      -2.985800568647       2.721851180000
        67    1       47.402530426616      -4.867992558254       4.082776780000
        68    1       43.177045932810      -5.684365934491       0.000000000000
        69    1       45.059237922417      -1.814154310938       4.082776780000
        70    1       46.230884168907      -3.341073438900       0.000000000000
        71    1       44.703965050858      -4.512719686695       1.360925590000
        72    1       45.875611298654      -6.039638804744       2.721851180000
        73    1       53.154934039776      -2.879972924307       1.360925590000
        74    1       48.929449544664      -3.696346310459       2.721851180000
        75    1       52.799661168217      -5.578538300065       4.082776780000
        76    1       48.574176674411      -6.394911676302       0.000000000000
        77    1       50.456368664018      -2.524700052749       4.082776780000
        78    1       51.628014910508      -4.051619180712       0.000000000000
        79    1       50.101095792460      -5.223265428507       1.360925590000
        80    1       51.272742040255      -6.750184546555       2.721851180000
        81    1       58.552064781377      -3.590518666119       1.360925590000
        82    1       54.326580286266      -4.406892052270       2.721851180000
        83    1       58.196791909819      -6.289084041876       4.082776780000
        84    1       53.971307416013      -7.105457418113       0.000000000000
        85    1       55.853499405619      -3.235245794560       4.082776780000
        86    1       57.025145652109      -4.762164922523       0.000000000000
        87    1       55.498226534061      -5.933811170318       1.360925590000
        88    1       56.669872781856      -7.460730288366       2.721851180000
        89    1       63.949195522978      -4.301064407930       1.360925590000
        90    1       59.723711027867      -5.117437794081       2.721851180000
        91    1       63.593922651420      -6.999629783688       4.082776780000
        92    1       59.368438157614      -7.816003159925       0.000000000000
        93    1       61.250630147220      -3.945791536372       4.082776780000
        94    1       62.422276393710      -5.472710664334       0.000000000000
        95    1       60.895357275662      -6.644356912129       1.360925590000
        96    1       62.067003523457      -8.171276030178       2.721851180000
        97    1       69.346326264580      -5.011610149741       1.360925590000
        98    1       65.120841769468      -5.827983535893       2.721851180000
        99    1       68.991053393021      -7.710175525499       4.082776780000
       100    1       64.765568899215      -8.526548901736       0.000000000000
       101    1       66.647760888822      -4.656337278183       4.082776780000
       102    1       67.819407135312      -6.183256406146       0.000000000000
       103    1       66.292488017263      -7.354902653941       1.360925590000
       104    1       67.464134265059      -8.881821771989       2.721851180000
       105    1       74.743457006181      -5.722155891553       1.360925590000
       106    1       70.517972511069      -6.538529277704       2.721851180000
       107    1       74.388184134623      -8.420721267310       4.082776780000
       108    1       70.162699640816      -9.237094643547       0.000000000000
       109    1       72.044891630423      -5.366883019994       4.082776780000
       110    1       73.216537876913      -6.893802147957       0.000000000000
       111    1       71.689618758865      -8.065448395752       1.360925590000
       112    1       72.861265006660      -9.592367513800       2.721851180000
       113    1       80.140587747782      -6.432701633364       1.360925590000
       114    1       75.915103252671      -7.249075019515       2.721851180000
       115    1       79.785314876224      -9.131267009122       4.082776780000
       116    1       75.559830382418      -9.947640385359       0.000000000000
       117    1       77.442022372024      -6.077428761806       4.082776780000
       118    1       78.613668628429      -7.604347891074       0.000000000000
       119    1       77.086749500466      -8.775994137563       1.360925590000
       120    1       78.258395758176     -10.302913256917       2.721851180000
       121    1       85.537718489383      -7.143247375175       1.360925590000
       122    1       81.312233994272      -7.959620761327       2.721851180000
       123    1       85.182445617825      -9.841812750933       4.082776780000
       124    1       80.956961124019     -10.658186127170       0.000000000000
       125    1       82.839153113625      -6.787974503617       4.082776780000
       126    1       84.010799370030      -8.314893632885       0.000000000000
       127    1       82.483880242067      -9.486539879375       1.360925590000
       128    1       83.655526499777     -11.013458998728       2.721851180000
       129    1       90.934849230985      -7.853793116987       1.360925590000
       130    1       86.709364735873      -8.670166503138       2.721851180000
       131    1       90.579576359426     -10.552358492744       4.082776780000
       132    1       86.354091865620     -11.368731868981       0.000000000000
       133    1       88.236283855227      -7.498520245428       4.082776780000
       134    1       89.407930101717      -9.025439373391       0.000000000000
       135    1       87.881010983668     -10.197085621186       1.360925590000
       136    1       89.052657231464     -11.724004739234       2.721851180000
       137    1       96.331979972586      -8.564338858798       1.360925590000
       138    1       92.106495477475      -9.380712244949       2.721851180000
       139    1       95.976707101028     -11.262904234556       4.082776780000
       140    1       91.751222607221     -12.079277610793       0.000000000000
       141    1       93.633414596828      -8.209065987240       4.082776780000
       142    1       94.805060843318      -9.735985115202       0.000000000000
       143    1       93.278141725270     -10.907631362997       1.360925590000
       144    1       94.449787973065     -12.434550481046       2.721851180000
       145    1      101.729110714187      -9.274884600609       1.360925590000
       146    1       97.503626219076     -10.091257986761       2.721851180000
       147    1      101.373837842629     -11.973449976367       4.082776780000
       148    1       97.148353348823     -12.789823352604       0.000000000000
       149    1       99.030545338429      -8.919611729051       4.082776780000
       150    1      100.202191584919     -10.446530857014       0.000000000000
       151    1       98.675272466871     -11.618177104809       1.360925590000
       152    1       99.846918714666     -13.145096222857       2.721851180000
       153    1      107.126241455788      -9.985430342421       1.360925590000
       154    1      102.900756960677     -10.801803728572       2.721851180000
       155    1      106.770968584230     -12.683995718178       4.082776780000
       156    1      102.545484090424     -13.500369094415       0.000000000000
       157    1      104.427676080031      -9.630157470862       4.082776780000
       158    1      105.599322336435     -11.157076600130       0.000000000000
       159    1      104.072403208472     -12.328722846620       1.360925590000
       160    1      105.244049466182     -13.855641965974       2.721851180000
       161    1        5.291303107176       8.912069493596       1.360925590000
       162    1        1.065818612064       8.095696107445       2.721851180000
       163    1        4.936030235617       6.213504117838       4.082776780000
       164    1        0.710545741811       5.397130741601       0.000000000000
       165    1        2.592737731418       9.267342365154       4.082776780000
       166    1        3.764383987822       7.740423235886       0.000000000000
       167    1        2.237464859860       6.568776989396       1.360925590000
       168    1        3.409111117569       5.041857870043       2.721851180000
       169    1       10.688433848777       8.201523751785       1.360925590000
       170    1        6.462949353666       7.385150365633       2.721851180000
       171    1       10.333160977219       5.502958376027       4.082776780000
       172    1        6.107676483413       4.686584999790       0.000000000000
       173    1        7.989868473019       8.556796623343       4.082776780000
       174    1        9.161514719509       7.029877495380       0.000000000000
       175    1        7.634595601461       5.858231247585       1.360925590000
       176    1        8.806241849256       4.331312129537       2.721851180000
       177    1       16.085564590378       7.490978009973       1.360925590000
       178    1       11.860080095267       6.674604623822       2.721851180000
       179    1       15.730291718820       4.792412634215       4.082776780000
       180    1       11.504807225014       3.976039257979       0.000000000000
       181    1       13.386999214620       7.846250881532       4.082776780000
       182    1       14.558645461110       6.319331753569       0.000000000000
       183    1       13.031726343062       5.147685505774       1.360925590000
       184    1       14.203372590857       3.620766387726       2.721851180000
       185    1       21.482695331979       6.780432268162       1.360925590000
       186    1       17.257210836868       5.964058882011       2.721851180000
       187    1       21.127422460421       4.081866892404       4.082776780000
       188    1       16.901937966615       3.265493516167       0.000000000000
       189    1       18.784129956222       7.135705139720       4.082776780000
       190    1       19.955776202712       5.608786011758       0.000000000000
       191    1       18.428857084663       4.437139763962       1.360925590000
       192    1       19.600503332459       2.910220645914       2.721851180000
       193    1       26.879826073581       6.069886526351       1.360925590000
       194    1       22.654341578469       5.253513140199       2.721851180000
       195    1       26.524553202022       3.371321150593       4.082776780000
       196    1       22.299068708216       2.554947774356       0.000000000000
       197    1       24.181260697823       6.425159397909       4.082776780000
       198    1       25.352906944313       4.898240269946       0.000000000000
       199    1       23.825987826265       3.726594022151       1.360925590000
       200    1       24.997634074060       2.199674904103       2.721851180000
       201    1       32.276956815182       5.359340784539       1.360925590000
       202    1       28.051472320071       4.542967398388       2.721851180000
       203    1       31.921683943624       2.660775408781       4.082776780000
       204    1       27.696199449818       1.844402032545       0.000000000000
       205    1       29.578391439424       5.714613656098       4.082776780000
       206    1       30.750037685914       4.187694528135       0.000000000000
       207    1       29.223118567866       3.016048280340       1.360925590000
       208    1       30.394764815661       1.489129162292       2.721851180000
       209    1       37.674087556783       4.648795042728       1.360925590000
       210    1       33.448603061672       3.832421656577       2.721851180000
       211    1       37.318814685225       1.950229666970       4.082776780000
       212    1       33.093330191419       1.133856290733       0.000000000000
       213    1       34.975522181025       5.004067914286       4.082776780000
       214    1       36.147168427515       3.477148786324       0.000000000000
       215    1       34.620249309467       2.305502538528       1.360925590000
       216    1       35.791895557262       0.778583420480       2.721851180000
       217    1       43.071218298385       3.938249300917       1.360925590000
       218    1       38.845733803273       3.121875914765       2.721851180000
       219    1       42.715945426826       1.239683925159       4.082776780000
       220    1       38.490460933020       0.423310548922       0.000000000000
       221    1       40.372652922627       4.293522172475       4.082776780000
       222    1       41.544299169117       2.766603044512       0.000000000000
       223    1       40.017380051068       1.594956796717       1.360925590000
       224    1       41.189026298864       0.068037678669       2.721851180000
       225    1       48.468349039986       3.227703559105       1.360925590000
       226    1       44.242864544874       2.411330172954       2.721851180000
       227    1       48.113076168428       0.529138183347       4.082776780000
       228    1       43.887591674621      -0.287235192889       0.000000000000
       229    1       45.769783664228       3.582976430664       4.082776780000
       230    1       46.941429910718       2.056057302701       0.000000000000
       231    1       45.414510792670       0.884411054906       1.360925590000
       232    1       46.586157040465      -0.642508063142       2.721851180000
       233    1       53.865479781587       2.517157817294       1.360925590000
       234    1       49.639995286476       1.700784431143       2.721851180000
       235    1       53.510206910029      -0.181407558464       4.082776780000
       236    1       49.284722416223      -0.997780934701       0.000000000000
       237    1       51.166914405829       2.872430688852       4.082776780000
       238    1       52.338560652319       1.345511560890       0.000000000000
       239    1       50.811641534271       0.173865313094       1.360925590000
       240    1       51.983287782066      -1.353053804954       2.721851180000
       241    1       59.262610523188       1.806612075483       1.360925590000
       242    1       55.037126028077       0.990238689331       2.721851180000
       243    1       58.907337651630      -0.891953300275       4.082776780000
       244    1       54.681853157824      -1.708326676512       0.000000000000
       245    1       56.564045147430       2.161884947041       4.082776780000
       246    1       57.735691393920       0.634965819078       0.000000000000
       247    1       56.208772275872      -0.536680428717       1.360925590000
       248    1       57.380418523667      -2.063599546765       2.721851180000
       249    1       64.659741264790       1.096066333671       1.360925590000
       250    1       60.434256769678       0.279692947520       2.721851180000
       251    1       64.304468393231      -1.602499042087       4.082776780000
       252    1       60.078983899425      -2.418872418323       0.000000000000
       253    1       61.961175889032       1.451339205230       4.082776780000
       254    1       63.132822135522      -0.075579922733       0.000000000000
       255    1       61.605903017473      -1.247226170528       1.360925590000
       256    1       62.777549265269      -2.774145288576       2.721851180000
       257    1       70.056872006391       0.385520591860       1.360925590000
       258    1       65.831387511280      -0.430852794291       2.721851180000
       259    1       69.701599134833      -2.313044783898       4.082776780000
       260    1       65.476114641026      -3.129418160135       0.000000000000
       261    1       67.358306630633       0.740793463418       4.082776780000
       262    1       68.529952877123      -0.786125664544       0.000000000000
       263    1       67.003033759075      -1.957771912340       1.360925590000
       264    1       68.174680006870      -3.484691030388       2.721851180000
       265    1       75.454002747992      -0.325025149951       1.360925590000
       266    1       71.228518252881      -1.141398536103       2.721851180000
       267    1       75.098729876434      -3.023590525709       4.082776780000
       268    1       70.873245382628      -3.839963901946       0.000000000000
       269    1       72.755437372234       0.030247721607       4.082776780000
       270    1       73.927083618724      -1.496671406356       0.000000000000
       271    1       72.400164500676      -2.668317654151       1.360925590000
       272    1       73.571810748471      -4.195236772199       2.721851180000
       273    1       80.851133489593      -1.035570891763       1.360925590000
       274    1       76.625648994482      -1.851944277914       2.721851180000
       275    1       80.495860618035      -3.734136267521       4.082776780000
       276    1       76.270376124229      -4.550509643757       0.000000000000
       277    1       78.152568113836      -0.680298020204       4.082776780000
       278    1       79.324214370240      -2.207217149472       0.000000000000
       279    1       77.797295242277      -3.378863395962       1.360925590000
       280    1       78.968941499987      -4.905782515316       2.721851180000
       281    1       86.248264231195      -1.746116633574       1.360925590000
       282    1       82.022779736083      -2.562490019725       2.721851180000
       283    1       85.892991359636      -4.444682009332       4.082776780000
       284    1       81.667506865830      -5.261055385569       0.000000000000
       285    1       83.549698855437      -1.390843762016       4.082776780000
       286    1       84.721345111841      -2.917762891284       0.000000000000
       287    1       83.194425983879      -4.089409137774       1.360925590000
       288    1       84.366072241588      -5.616328257127       2.721851180000
       289    1       91.645394972796      -2.456662375385       1.360925590000
       290    1       87.419910477685      -3.273035761537       2.721851180000
       291    1       91.290122101238      -5.155227751143       4.082776780000
       292    1       87.064637607432      -5.971601127380       0.000000000000
       293    1       88.946829597038      -2.101389503827       4.082776780000
       294    1       90.118475843528      -3.628308631790       0.000000000000
       295    1       88.591556725480      -4.799954879585       1.360925590000
       296    1       89.763202973275      -6.326873997633       2.721851180000
       297    1       97.042525714397      -3.167208117197       1.360925590000
       298    1       92.817041219286      -3.983581503348       2.721851180000
       299    1       96.687252842839      -5.865773492955       4.082776780000
       300    1       92.461768349033      -6.682146869191       0.000000000000
       301    1       94.343960338639      -2.811935245638       4.082776780000
       302    1       95.515606585129      -4.338854373601       0.000000000000
       303    1       93.988687467081      -5.510500621396       1.360925590000
       304    1       95.160333714876      -7.037419739444       2.721851180000
       305    1      102.439656455998      -3.877753859008       1.360925590000
       306    1       98.214171960887      -4.694127245159       2.721851180000
       307    1      102.084383584440      -6.576319234766       4.082776780000
       308    1       97.858899090634      -7.392692611003       0.000000000000
       309    1       99.741091080241      -3.522480987450       4.082776780000
       310    1      100.912737326731      -5.049400115412       0.000000000000
       311    1       99.385818208682      -6.221046363208       1.360925590000
       312    1      100.557464456477      -7.747965481256       2.721851180000
       313    1      107.836787197600      -4.588299600819       1.360925590000
       314    1      103.611302702488      -5.404672986971       2.721851180000
       315    1      107.481514326041      -7.286864976577       4.082776780000
       316    1      103.256029832235      -8.103238352814       0.000000000000
       317    1      105.138221821842      -4.233026729261       4.082776780000
       318    1      106.309868078246      -5.759945858529       0.000000000000
       319    1      104.782948950284      -6.931592105019       1.360925590000
       320    1      105.954595207993      -8.458511224372       2.721851180000
       321    1        6.001848848987      14.309200235197       1.360925590000
       322    1        1.776364353876      13.492826849046       2.721851180000
       323    1        5.646575977429      11.610634859439       4.082776780000
       324    1        1.421091483623      10.794261483203       0.000000000000
       325    1        3.303283473229      14.664473106756       4.082776780000
       326    1        4.474929729634      13.137553977488       0.000000000000
       327    1        2.948010601671      11.965907730998       1.360925590000
       328    1        4.119656859381      10.438988611644       2.721851180000
       329    1       11.398979590588      13.598654493386       1.360925590000
       330    1        7.173495095477      12.782281107235       2.721851180000
       331    1       11.043706719030      10.900089117628       4.082776780000
       332    1        6.818222225224      10.083715741391       0.000000000000
       333    1        8.700414214830      13.953927364944       4.082776780000
       334    1        9.872060461320      12.427008236982       0.000000000000
       335    1        8.345141343272      11.255361989186       1.360925590000
       336    1        9.516787591067       9.728442871138       2.721851180000
       337    1       16.796110332190      12.888108751575       1.360925590000
       338    1       12.570625837078      12.071735365423       2.721851180000
       339    1       16.440837460631      10.189543375817       4.082776780000
       340    1       12.215352966825       9.373169999580       0.000000000000
       341    1       14.097544956432      13.243381623133       4.082776780000
       342    1       15.269191202922      11.716462495170       0.000000000000
       343    1       13.742272084873      10.544816247375       1.360925590000
       344    1       14.913918332669       9.017897129327       2.721851180000
       345    1       22.193241073791      12.177563009763       1.360925590000
       346    1       17.967756578679      11.361189623612       2.721851180000
       347    1       21.837968202233       9.478997634005       4.082776780000
       348    1       17.612483708426       8.662624257769       0.000000000000
       349    1       19.494675698033      12.532835881322       4.082776780000
       350    1       20.666321944523      11.005916753359       0.000000000000
       351    1       19.139402826475       9.834270505564       1.360925590000
       352    1       20.311049074270       8.307351387515       2.721851180000
       353    1       27.590371815392      11.467017267952       1.360925590000
       354    1       23.364887320281      10.650643881801       2.721851180000
       355    1       27.235098943834       8.768451892194       4.082776780000
       356    1       23.009614450028       7.952078515957       0.000000000000
       357    1       24.891806439634      11.822290139510       4.082776780000
       358    1       26.063452686124      10.295371011548       0.000000000000
       359    1       24.536533568076       9.123724763752       1.360925590000
       360    1       25.708179815871       7.596805645704       2.721851180000
       361    1       32.987502556993      10.756471526141       1.360925590000
       362    1       28.762018061882       9.940098139989       2.721851180000
       363    1       32.632229685435       8.057906150383       4.082776780000
       364    1       28.406745191629       7.241532774146       0.000000000000
       365    1       30.288937181236      11.111744397699       4.082776780000
       366    1       31.460583427725       9.584825269736       0.000000000000
       367    1       29.933664309677       8.413179021941       1.360925590000
       368    1       31.105310557472       6.886259903893       2.721851180000
       369    1       38.384633298595      10.045925784329       1.360925590000
       370    1       34.159148803483       9.229552398178       2.721851180000